Martini system from GF_dipeptide_clean.pdb in water
39151
    1GLY     BB    1   3.453   3.747  14.663 -0.0011 -0.1292 -0.0874
    2PHE     BB    2   3.237   3.627  14.548  0.0468  0.1501  0.1920
    2PHE    SC1    3   3.264   3.323  14.522 -0.1710 -0.0363  0.0639
    2PHE    SC2    4   3.263   3.071  14.427 -0.1915  0.0207 -0.0892
    2PHE    SC3    5   3.227   3.116  14.690 -0.1582 -0.1376 -0.0568
    1GLY     BB    6   3.300  15.761   1.980  0.0887 -0.0941  0.2973
    2PHE     BB    7   3.484  15.436   2.086 -0.0220 -0.0912 -0.0421
    2PHE    SC1    8   3.339  15.338   1.850 -0.0147 -0.1489  0.1380
    2PHE    SC2    9   3.177  15.183   1.698  0.0356 -0.1658  0.1013
    2PHE    SC3   10   3.194  15.448   1.650 -0.0161 -0.1562  0.1350
    1GLY     BB   11   3.972   6.564   3.573 -0.3477 -0.3205 -0.0459
    2PHE     BB   12   3.942   6.332   3.620  0.6164  0.1893 -0.1215
    2PHE    SC1   13   3.802   6.237   3.866 -0.2184  0.0392 -0.1598
    2PHE    SC2   14   3.589   6.114   3.977 -0.0980 -0.2557 -0.2478
    2PHE    SC3   15   3.797   6.189   4.132 -0.0754 -0.3665 -0.2229
    1GLY     BB   16   4.581   7.740   9.308  0.2550  0.1447  0.3270
    2PHE     BB   17   4.416   7.918   9.573  0.2243 -0.0430 -0.0108
    2PHE    SC1   18   4.424   7.658   9.770 -0.1394  0.0327 -0.1677
    2PHE    SC2   19   4.572   7.433   9.752  0.0623  0.1777 -0.3899
    2PHE    SC3   20   4.372   7.449   9.933  0.2561 -0.0562 -0.1462
    1GLY     BB   21  15.042   7.078   2.774 -0.1341  0.0335 -0.2761
    2PHE     BB   22  15.036   7.159   2.487  0.2528  0.0021 -0.0597
    2PHE    SC1   23  14.846   6.973   2.333 -0.1113  0.0502  0.1651
    2PHE    SC2   24  14.585   6.905   2.314 -0.0714 -0.0992  0.1422
    2PHE    SC3   25  14.775   6.745   2.207  0.0215  0.0750  0.0431
    1GLY     BB   26   8.933   4.996  15.249  0.1246 -0.0725  0.2190
    2PHE     BB   27   8.875   4.824  15.482  0.2435 -0.1001 -0.2719
    2PHE    SC1   28   8.832   4.797  15.775 -0.1491  0.1659 -0.0635
    2PHE    SC2   29   8.766   4.859  16.029 -0.0840 -0.1577  0.0366
    2PHE    SC3   30   8.730   4.608  15.938 -0.0084 -0.0703 -0.2440
    1GLY     BB   31   2.935   6.160   0.146  0.1299  0.2238  0.1009
    2PHE     BB   32   2.808   6.358   0.176  0.0229 -0.0613  0.2365
    2PHE    SC1   33   2.932   6.641   0.107 -0.1513 -0.0747 -0.2429
    2PHE    SC2   34   2.875   6.881  -0.002  0.0135  0.1054  0.0531
    2PHE    SC3   35   3.129   6.822   0.067  0.0276 -0.2756 -0.2881
    1GLY     BB   36  16.214   0.229   8.697  0.1197 -0.2031  0.1051
    2PHE     BB   37  16.214   0.087   8.869  0.2664  0.1897  0.0482
    2PHE    SC1   38  16.232  -0.164   9.023  0.2938  0.5163  0.3579
    2PHE    SC2   39  16.404  -0.366   8.973 -0.3634  0.0861 -0.4049
    2PHE    SC3   40  16.181  -0.412   9.119 -0.3001  0.3920 -0.2033
    1GLY     BB   41  10.972   0.183   7.950  0.3694  0.0883  0.0554
    2PHE     BB   42  11.056   0.388   8.090 -0.0491  0.0513  0.1327
    2PHE    SC1   43  11.111   0.375   8.373 -0.0444  0.1214  0.0303
    2PHE    SC2   44  11.183   0.182   8.547  0.0674  0.1354  0.0004
    2PHE    SC3   45  11.200   0.441   8.619 -0.0921  0.1347  0.0441
    1GLY     BB   46   0.909  11.899  12.048 -0.2874 -0.2674  0.1906
    2PHE     BB   47   0.624  11.989  11.868 -0.2370 -0.0809  0.4069
    2PHE    SC1   48   0.632  11.800  11.638  0.2225  0.0202 -0.1208
    2PHE    SC2   49   0.523  11.732  11.401 -0.2147 -0.2140  0.1328
    2PHE    SC3   50   0.630  11.541  11.559 -0.1704 -0.0999  0.2422
    1GLY     BB   51   1.567   8.935  10.189  0.1180 -0.1734  0.1658
    2PHE     BB   52   1.364   9.002  10.085  0.1504  0.0711  0.3038
    2PHE    SC1   53   1.189   8.802   9.874 -0.0944 -0.0858 -0.0305
    2PHE    SC2   54   0.971   8.642   9.860 -0.2080  0.0703 -0.0811
    2PHE    SC3   55   1.092   8.725   9.633 -0.0410 -0.0861 -0.0519
    1GLY     BB   56   0.171  12.088  10.635 -0.1501  0.0105 -0.1044
    2PHE     BB   57   0.295  12.094  10.790 -0.1640 -0.1138  0.0109
    2PHE    SC1   58   0.523  11.985  10.950 -0.1987 -0.1493  0.1973
    2PHE    SC2   59   0.748  12.046  11.085 -0.0906 -0.0509 -0.0213
    2PHE    SC3   60   0.724  11.806  10.965 -0.0517 -0.0165 -0.0984
    1GLY     BB   61   4.598   3.530   1.409  0.0428 -0.1494 -0.2795
    2PHE     BB   62   4.457   3.370   1.331 -0.0608 -0.0039 -0.0807
    2PHE    SC1   63   4.427   3.093   1.339 -0.2225  0.0794  0.2405
    2PHE    SC2   64   4.221   2.937   1.259 -0.2105  0.3583 -0.3961
    2PHE    SC3   65   4.461   2.826   1.314 -0.3654  0.0954 -0.2325
    1GLY     BB   66   2.035   7.710   6.384 -0.2377 -0.0852  0.0641
    2PHE     BB   67   2.201   7.927   6.685  0.1535 -0.1818 -0.3080
    2PHE    SC1   68   1.897   8.045   6.735 -0.0703 -0.1272 -0.1628
    2PHE    SC2   69   1.753   8.273   6.711  0.1917  0.0614 -0.0014
    2PHE    SC3   70   1.680   8.051   6.575 -0.1257  0.2108 -0.0828
    1GLY     BB   71  15.392   6.662   6.657  0.0375  0.0772 -0.1517
    2PHE     BB   72  15.246   6.824   6.760  0.0795 -0.2178 -0.0524
    2PHE    SC1   73  14.973   6.724   6.928  0.0662  0.0345 -0.1814
    2PHE    SC2   74  14.886   6.751   7.182  0.0601  0.0533 -0.1856
    2PHE    SC3   75  14.728   6.633   6.998  0.0492  0.0738 -0.1895
    1GLY     BB   76  15.668   2.119  13.232  0.0983 -0.1102 -0.0224
    2PHE     BB   77  15.556   2.274  13.065 -0.3384  0.0378  0.2147
    2PHE    SC1   78  15.561   2.398  12.797 -0.1144 -0.3775  0.1953
    2PHE    SC2   79  15.734   2.533  12.640 -0.4544  0.1028  0.2117
    2PHE    SC3   80  15.501   2.441  12.537 -0.3685 -0.1985  0.2786
    1GLY     BB   81   0.162   1.205   0.168  0.3284 -0.1118  0.0287
    2PHE     BB   82   0.214   1.077   0.326  0.0233  0.1008 -0.4453
    2PHE    SC1   83   0.418   0.915   0.498  0.0639  0.0225  0.0159
    2PHE    SC2   84   0.662   0.800   0.501 -0.1270 -0.3992  0.1018
    2PHE    SC3   85   0.524   0.832   0.731 -0.0106  0.1758  0.1061
    1GLY     BB   86   4.458  11.088   1.353  0.2011  0.0048 -0.2176
    2PHE     BB   87   4.215  11.028   1.184  0.0631 -0.0289  0.1335
    2PHE    SC1   88   4.238  11.115   0.882  0.0715 -0.0221 -0.3212
    2PHE    SC2   89   4.304  11.315   0.713 -0.0489 -0.0433 -0.3942
    2PHE    SC3   90   4.062  11.195   0.694 -0.1461  0.0912 -0.0764
    1GLY     BB   91   7.672  11.492  13.566 -0.3164 -0.1173  0.0704
    2PHE     BB   92   7.766  11.396  13.783 -0.0966 -0.3133  0.2526
    2PHE    SC1   93   7.836  11.127  13.861  0.0084  0.1730  0.1548
    2PHE    SC2   94   7.831  10.888  13.987  0.1247  0.1166  0.0540
    2PHE    SC3   95   8.064  10.985  13.891  0.1531  0.4548  0.4413
    1GLY     BB   96  11.701   0.691   3.773 -0.0868 -0.1693 -0.0745
    2PHE     BB   97  11.862   0.862   3.619  0.0482  0.2305  0.1516
    2PHE    SC1   98  12.110   1.040   3.673  0.4508  0.2100 -0.2521
    2PHE    SC2   99  12.216   1.206   3.857  0.1988  0.0140  0.0837
    2PHE    SC3  100  12.342   0.975   3.795  0.3561  0.1458 -0.1035
    1GLY     BB  101   5.976   9.429  14.078 -0.1718  0.2402 -0.1806
    2PHE     BB  102   5.884   9.346  14.296  0.0864  0.3974 -0.0755
    2PHE    SC1  103   5.810   9.079  14.444  0.2582 -0.1186  0.0998
    2PHE    SC2  104   5.757   8.940  14.670 -0.0388 -0.1338  0.0260
    2PHE    SC3  105   5.654   8.858  14.434 -0.1199  0.1432 -0.0386
    1GLY     BB  106  14.425   5.406   1.500 -0.1514  0.2634 -0.0311
    2PHE     BB  107  14.086   5.436   1.502  0.0658  0.0320 -0.1922
    2PHE    SC1  108  14.031   5.561   1.791  0.0489  0.0014 -0.1754
    2PHE    SC2  109  13.984   5.424   2.019  0.1799  0.1168 -0.0772
    2PHE    SC3  110  13.858   5.658   1.975  0.4965  0.3253  0.0933
    1GLY     BB  111  10.411   0.710   2.715 -0.3054 -0.0154 -0.3880
    2PHE     BB  112  10.194   0.663   2.554 -0.0002 -0.0342  0.1863
    2PHE    SC1  113  10.209   0.483   2.311 -0.2121 -0.3794  0.5649
    2PHE    SC2  114  10.410   0.343   2.198 -0.2971 -0.1297  0.0824
    2PHE    SC3  115  10.157   0.308   2.112 -0.3158  0.3380 -0.0835
    1GLY     BB  116  15.983   0.157  14.420 -0.1160  0.3897 -0.0490
    2PHE     BB  117  16.342  -0.085  14.509  0.0064  0.3402 -0.1281
    2PHE    SC1  118  16.180  -0.312  14.504 -0.1232  0.1750 -0.2354
    2PHE    SC2  119  16.056  -0.532  14.600  0.3182 -0.0316 -0.1098
    2PHE    SC3  120  16.106  -0.509  14.336 -0.0004  0.0690 -0.1667
    1GLY     BB  121  11.013  11.114  10.130  0.0311  0.1088  0.0374
    2PHE     BB  122  10.840  11.151   9.947 -0.1971  0.1276 -0.0802
    2PHE    SC1  123  10.728  11.432   9.822  0.0670  0.1322 -0.0411
    2PHE    SC2  124  10.784  11.679   9.916  0.1817  0.0754  0.0430
    2PHE    SC3  125  10.835  11.618   9.658  0.4758  0.0377  0.1070
    1GLY     BB  126   4.151   7.804  10.651  0.2215  0.0228  0.0700
    2PHE     BB  127   3.938   8.076  10.493  0.1671  0.0658 -0.2171
    2PHE    SC1  128   4.058   7.963  10.242 -0.3527  0.2359  0.0250
    2PHE    SC2  129   4.109   7.980   9.978  0.3954 -0.0019  0.1297
    2PHE    SC3  130   4.076   7.739  10.093 -0.1593  0.1095  0.2313
    1GLY     BB  131  13.724   6.437   2.631 -0.0189 -0.2114  0.0572
    2PHE     BB  132  14.044   6.344   2.705  0.1741  0.1013  0.1460
    2PHE    SC1  133  14.195   6.622   2.785 -0.2037  0.0544  0.2674
    2PHE    SC2  134  14.208   6.837   2.947 -0.2103  0.2490  0.0147
    2PHE    SC3  135  14.292   6.855   2.691  0.0965 -0.1399  0.0785
    1GLY     BB  136   2.470   9.062  16.241  0.1476  0.0569 -0.2117
    2PHE     BB  137   2.675   8.904  16.160 -0.0467 -0.1705 -0.2460
    2PHE    SC1  138   2.843   8.928  15.920 -0.0949 -0.1943 -0.2378
    2PHE    SC2  139   3.077   8.965  15.791  0.0129 -0.2534 -0.0623
    2PHE    SC3  140   2.856   9.098  15.711  0.2274  0.2274  0.1069
    1GLY     BB  141  14.979  13.712   6.334 -0.0496  0.0563 -0.1672
    2PHE     BB  142  14.971  13.584   6.136  0.0744 -0.0947 -0.0255
    2PHE    SC1  143  14.991  13.293   6.118  0.2249 -0.0475  0.3445
    2PHE    SC2  144  15.093  13.084   6.255 -0.0399 -0.3296  0.1228
    2PHE    SC3  145  14.880  13.049   6.093  0.1220  0.0423 -0.1860
    1GLY     BB  146   3.185   9.464  15.730  0.2425 -0.2792  0.1700
    2PHE     BB  147   3.293   9.409  15.483  0.1335  0.2433 -0.3086
    2PHE    SC1  148   3.159   9.135  15.351  0.2001  0.0210 -0.3196
    2PHE    SC2  149   3.190   8.918  15.192  0.2700 -0.1055 -0.1373
    2PHE    SC3  150   2.953   8.963  15.315  0.1784  0.0564 -0.3654
    1GLY     BB  151   3.170  10.919   0.391  0.1766  0.2260  0.3515
    2PHE     BB  152   3.564  10.769   0.384  0.1269  0.1122  0.1308
    2PHE    SC1  153   3.780  10.748   0.575 -0.0853 -0.1324 -0.0436
    2PHE    SC2  154   4.001  10.619   0.660  0.0319  0.0069 -0.1323
    2PHE    SC3  155   3.875  10.792   0.824 -0.1360 -0.2298 -0.0068
    1GLY     BB  156  14.308   9.103   8.304 -0.1905 -0.0078 -0.1011
    2PHE     BB  157  14.426   8.916   8.301  0.2556 -0.0024  0.0104
    2PHE    SC1  158  14.624   8.854   8.584  0.1626 -0.0417  0.2418
    2PHE    SC2  159  14.514   8.717   8.788  0.1293 -0.2374  0.0956
    2PHE    SC3  160  14.781   8.755   8.780  0.1242 -0.1716  0.2078
    1GLY     BB  161   3.591  14.603   3.417 -0.2492  0.0952  0.2171
    2PHE     BB  162   3.838  14.658   3.478  0.0523 -0.2866  0.1469
    2PHE    SC1  163   4.077  14.617   3.290 -0.0337  0.3460  0.1166
    2PHE    SC2  164   4.332  14.575   3.213 -0.1038 -0.1071  0.1080
    2PHE    SC3  165   4.134  14.579   3.029 -0.1348 -0.0168  0.1429
    1GLY     BB  166   7.345   0.442   6.682 -0.0026  0.1292 -0.2378
    2PHE     BB  167   7.232   0.406   6.936  0.2529  0.2580  0.0622
    2PHE    SC1  168   6.925   0.428   6.972 -0.0299 -0.0778 -0.2586
    2PHE    SC2  169   6.748   0.223   6.969 -0.0226 -0.1028  0.2411
    2PHE    SC3  170   6.662   0.477   6.932 -0.0294 -0.1819 -0.3987
    1GLY     BB  171   1.709   2.106   3.172  0.0031  0.2164 -0.2101
    2PHE     BB  172   1.853   2.243   3.292  0.2002  0.0903  0.1381
    2PHE    SC1  173   2.115   2.153   3.416  0.3258 -0.4602 -0.2039
    2PHE    SC2  174   2.384   2.133   3.420  0.3366 -0.3173  0.0868
    2PHE    SC3  175   2.248   2.167   3.651  0.1212  0.2610 -0.1066
    1GLY     BB  176   1.889  13.279   5.267 -0.0297  0.1925 -0.1711
    2PHE     BB  177   1.969  12.969   5.247 -0.2463 -0.1678 -0.1167
    2PHE    SC1  178   2.054  12.792   5.019  0.1087 -0.0231 -0.1212
    2PHE    SC2  179   2.190  12.705   4.802 -0.1152 -0.1086 -0.2305
    2PHE    SC3  180   1.964  12.580   4.879 -0.0678 -0.0453  0.0232
    1GLY     BB  181   5.504   9.136   7.306  0.2069 -0.0512 -0.1529
    2PHE     BB  182   5.386   9.457   7.403  0.0102  0.1348 -0.0262
    2PHE    SC1  183   5.110   9.340   7.509  0.0784  0.0452 -0.1063
    2PHE    SC2  184   4.942   9.329   7.720  0.2634  0.1578  0.0507
    2PHE    SC3  185   4.928   9.141   7.527 -0.0458  0.1702  0.0556
    1GLY     BB  186   1.315  10.653  11.392  0.0740  0.1428 -0.1049
    2PHE     BB  187   1.040  10.770  11.312  0.2103 -0.2487 -0.2264
    2PHE    SC1  188   0.997  11.044  11.409 -0.1327  0.1445 -0.1337
    2PHE    SC2  189   1.120  11.137  11.631  0.0917  0.1505 -0.2573
    2PHE    SC3  190   0.861  11.196  11.586 -0.0213 -0.0320  0.1099
    1GLY     BB  191   1.573  10.179  14.150  0.2969  0.3652 -0.2585
    2PHE     BB  192   1.438   9.993  14.278  0.2503 -0.1941 -0.2440
    2PHE    SC1  193   1.343   9.693  14.203 -0.0351 -0.1700  0.1273
    2PHE    SC2  194   1.185   9.487  14.279  0.0250 -0.2526  0.0300
    2PHE    SC3  195   1.277   9.500  14.025  0.0976 -0.1549  0.0611
    1GLY     BB  196  12.656  13.550   6.705  0.0803  0.0688 -0.4634
    2PHE     BB  197  12.902  13.589   6.907  0.0782  0.1425 -0.0850
    2PHE    SC1  198  13.050  13.843   6.913  0.0582  0.2258  0.1986
    2PHE    SC2  199  13.261  13.988   6.998  0.2903  0.0357 -0.0389
    2PHE    SC3  200  13.204  13.972   6.734 -0.1263  0.2205  0.0321
    1GLY     BB  201   5.581   5.956  14.165  0.0621 -0.2503 -0.1486
    2PHE     BB  202   5.829   5.927  14.334  0.0246  0.2694  0.2285
    2PHE    SC1  203   5.920   5.635  14.411  0.0664 -0.1168  0.1971
    2PHE    SC2  204   5.993   5.505  14.636  0.3195 -0.3212  0.0047
    2PHE    SC3  205   6.097   5.432  14.399 -0.0570 -0.2099 -0.2043
    1GLY     BB  206   5.375   3.995   7.936  0.1154  0.2724 -0.0729
    2PHE     BB  207   5.184   3.958   7.800  0.0016 -0.2028  0.0821
    2PHE    SC1  208   5.135   4.102   7.523  0.1675  0.0920 -0.0610
    2PHE    SC2  209   5.022   4.214   7.305 -0.3625 -0.2461  0.0239
    2PHE    SC3  210   5.185   4.360   7.462 -0.1600  0.0710 -0.4599
    1GLY     BB  211  10.713   0.712   8.330  0.0549 -0.0631 -0.0658
    2PHE     BB  212  10.754   0.712   8.598  0.1805 -0.2308 -0.2588
    2PHE    SC1  213  10.727   0.474   8.747  0.0420 -0.1713 -0.2192
    2PHE    SC2  214  10.820   0.233   8.824 -0.1982 -0.1746  0.0832
    2PHE    SC3  215  10.558   0.291   8.852 -0.1105  0.1913  0.2028
    1GLY     BB  216   1.626  13.091  10.213 -0.1233  0.0180  0.0041
    2PHE     BB  217   1.377  12.965  10.233  0.1107 -0.3032  0.0473
    2PHE    SC1  218   1.131  13.037  10.072  0.1645  0.2125 -0.0869
    2PHE    SC2  219   0.862  13.053  10.058  0.1466  0.4222  0.3302
    2PHE    SC3  220   1.015  13.182   9.876 -0.0289  0.2931  0.0839
    1GLY     BB  221  11.192   6.827   8.524 -0.2754 -0.0708  0.0947
    2PHE     BB  222  11.241   6.855   8.859 -0.0632  0.1495  0.0424
    2PHE    SC1  223  11.463   6.651   8.847  0.0336  0.1766 -0.1917
    2PHE    SC2  224  11.588   6.416   8.889  0.0356  0.2244  0.0879
    2PHE    SC3  225  11.720   6.619   8.771  0.1018  0.1542  0.0404
    1GLY     BB  226   1.062   7.921  15.765  0.2840 -0.0732  0.0520
    2PHE     BB  227   1.005   7.699  15.860 -0.0502  0.2886  0.0290
    2PHE    SC1  228   0.923   7.522  16.121  0.0781  0.0322 -0.1336
    2PHE    SC2  229   0.705   7.494  16.277 -0.0920  0.1271 -0.3477
    2PHE    SC3  230   0.929   7.353  16.331 -0.1389  0.1736 -0.0098
    1GLY     BB  231  15.439  10.485  12.410  0.0953 -0.1876 -0.1957
    2PHE     BB  232  15.514  10.444  12.121 -0.2053  0.6294  0.1420
    2PHE    SC1  233  15.638  10.231  11.960  0.0215  0.1384 -0.1351
    2PHE    SC2  234  15.836  10.052  11.924 -0.0969 -0.0293  0.0275
    2PHE    SC3  235  15.588   9.998  11.833 -0.2068 -0.0923  0.3507
    1GLY     BB  236   3.328   9.202  12.874  0.0854 -0.1819  0.1997
    2PHE     BB  237   3.233   9.011  12.845 -0.2291 -0.3114 -0.1250
    2PHE    SC1  238   3.363   8.726  12.801  0.2022 -0.0987  0.4112
    2PHE    SC2  239   3.379   8.518  12.630  0.2792  0.2198  0.0144
    2PHE    SC3  240   3.437   8.483  12.891  0.1762 -0.2754 -0.0191
    1GLY     BB  241   1.419   7.032   3.993 -0.0513 -0.2975 -0.1849
    2PHE     BB  242   1.300   6.872   3.941 -0.0802  0.0699 -0.0360
    2PHE    SC1  243   1.071   6.710   3.851 -0.1439 -0.0015  0.1857
    2PHE    SC2  244   0.999   6.619   3.608  0.0557 -0.2707  0.2230
    2PHE    SC3  245   0.868   6.534   3.828  0.1844 -0.4037  0.2498
    1GLY     BB  246   1.010   9.114   4.964  0.1796 -0.0163  0.2767
    2PHE     BB  247   1.169   9.165   4.856 -0.0813 -0.2837  0.0061
    2PHE    SC1  248   1.162   9.303   4.564 -0.1172 -0.2699 -0.1217
    2PHE    SC2  249   1.117   9.496   4.381  0.0635 -0.0071  0.1031
    2PHE    SC3  250   1.352   9.362   4.381 -0.0259 -0.1665  0.0041
    1GLY     BB  251  12.867  11.440   7.644 -0.3260 -0.0272  0.2345
    2PHE     BB  252  12.728  11.457   7.819  0.2359 -0.2879 -0.1034
    2PHE    SC1  253  12.456  11.559   7.958 -0.1603  0.0347 -0.3150
    2PHE    SC2  254  12.238  11.674   7.848 -0.3363  0.0753  0.0623
    2PHE    SC3  255  12.213  11.449   7.995 -0.0831 -0.0743 -0.1165
    1GLY     BB  256  16.332  15.283  10.126 -0.0811  0.1399  0.5060
    2PHE     BB  257  16.453  15.596  10.106 -0.2354 -0.1420 -0.1241
    2PHE    SC1  258  16.436  15.745   9.838 -0.0464  0.2447 -0.0438
    2PHE    SC2  259  16.340  15.882   9.626 -0.0719  0.1177 -0.1153
    2PHE    SC3  260  16.600  15.904   9.695 -0.0596  0.1451 -0.1707
    1GLY     BB  261   3.697  15.049   2.302 -0.0248 -0.0613  0.0517
    2PHE     BB  262   3.928  15.020   2.432  0.0109  0.0808  0.1148
    2PHE    SC1  263   4.207  15.048   2.320 -0.1892  0.1919  0.3443
    2PHE    SC2  264   4.400  15.030   2.132 -0.4216  0.0045  0.1154
    2PHE    SC3  265   4.429  15.201   2.339 -0.0855  0.0939  0.0022
    1GLY     BB  266   7.977   5.933  11.044  0.1686 -0.1319  0.0587
    2PHE     BB  267   7.839   6.002  10.944 -0.1653 -0.2388  0.2415
    2PHE    SC1  268   7.572   5.929  10.792 -0.0083  0.3086  0.0938
    2PHE    SC2  269   7.346   5.984  10.654 -0.1740 -0.2329  0.1236
    2PHE    SC3  270   7.438   5.731  10.667  0.5116 -0.0108  0.0140
    1GLY     BB  271  13.299  10.248  10.742 -0.0770  0.2219  0.0626
    2PHE     BB  272  13.016  10.317  10.506 -0.2342 -0.2948 -0.0045
    2PHE    SC1  273  12.845  10.033  10.440  0.0705 -0.4024 -0.0713
    2PHE    SC2  274  12.700   9.806  10.425  0.1882 -0.4887  0.0738
    2PHE    SC3  275  12.675   9.995  10.234  0.0401 -0.5938 -0.0124
    1GLY     BB  276   9.827   8.026   5.696  0.2913  0.0792  0.0629
    2PHE     BB  277  10.014   8.060   5.751  0.0409 -0.3549 -0.2337
    2PHE    SC1  278  10.219   8.107   5.953 -0.1000  0.2049  0.2031
    2PHE    SC2  279  10.375   7.925   6.077 -0.1223 -0.0185 -0.0850
    2PHE    SC3  280  10.487   8.117   5.925 -0.1059  0.1312  0.1128
    1GLY     BB  281   5.187  13.445  15.023 -0.0539 -0.0451 -0.2666
    2PHE     BB  282   5.270  13.362  15.088 -0.3518  0.4121  0.2460
    2PHE    SC1  283   5.569  13.417  15.270  0.0818 -0.2669  0.2316
    2PHE    SC2  284   5.777  13.473  15.433  0.0797  0.0232  0.1404
    2PHE    SC3  285   5.809  13.299  15.229  0.2635  0.1377  0.0682
    1GLY     BB  286   1.626   7.792   1.607 -0.1793 -0.0588  0.3849
    2PHE     BB  287   1.523   7.584   1.695 -0.1515  0.0281 -0.5516
    2PHE    SC1  288   1.700   7.371   1.503 -0.0851  0.1416 -0.1506
    2PHE    SC2  289   1.862   7.380   1.287  0.1998 -0.0665  0.0484
    2PHE    SC3  290   1.844   7.153   1.433 -0.1457  0.0076  0.1285
    1GLY     BB  291   6.794  14.015   0.031 -0.1096  0.1150  0.0082
    2PHE     BB  292   6.751  14.306   0.043 -0.0785  0.0908  0.0052
    2PHE    SC1  293   6.889  14.546   0.176 -0.0019  0.0254  0.1126
    2PHE    SC2  294   6.827  14.807   0.206  0.1141  0.0801 -0.1021
    2PHE    SC3  295   7.023  14.696   0.356 -0.0102  0.0867  0.0679
    1GLY     BB  296   3.436  15.032   5.660  0.0471 -0.0422  0.1668
    2PHE     BB  297   3.498  15.129   5.887 -0.0144  0.1554  0.1933
    2PHE    SC1  298   3.302  15.347   6.061 -0.4322 -0.1381  0.1795
    2PHE    SC2  299   3.213  15.602   6.056  0.1522  0.0824  0.2405
    2PHE    SC3  300   3.183  15.453   6.279 -0.2644  0.0616  0.1779
    1GLY     BB  301   8.031   4.579   1.464 -0.0334 -0.0417  0.3528
    2PHE     BB  302   7.874   4.539   1.256 -0.2288  0.3410  0.1962
    2PHE    SC1  303   7.582   4.463   1.267 -0.1560  0.0446  0.1140
    2PHE    SC2  304   7.458   4.224   1.254 -0.0621 -0.0046  0.1096
    2PHE    SC3  305   7.365   4.432   1.109  0.2211 -0.2050 -0.3824
    1GLY     BB  306   5.808   8.389  12.883 -0.0147  0.0890  0.1396
    2PHE     BB  307   5.744   8.406  13.232  0.2123  0.0542 -0.0399
    2PHE    SC1  308   5.692   8.669  13.400 -0.0814 -0.0255 -0.1236
    2PHE    SC2  309   5.776   8.834  13.596 -0.1754  0.0169 -0.1187
    2PHE    SC3  310   5.513   8.817  13.538 -0.1653 -0.1237 -0.1258
    1GLY     BB  311   1.639  10.204  10.161 -0.4252 -0.1763  0.0373
    2PHE     BB  312   2.060  10.145  10.235  0.1758  0.0893 -0.4263
    2PHE    SC1  313   2.112  10.433  10.197 -0.0766 -0.0614  0.1598
    2PHE    SC2  314   2.229  10.628  10.052 -0.0193 -0.0755  0.1864
    2PHE    SC3  315   1.960  10.599  10.048 -0.0137 -0.1184  0.0308
    1GLY     BB  316   5.342   0.145   9.283 -0.0401  0.1339  0.1230
    2PHE     BB  317   5.199   0.139   9.321  0.0545 -0.0424 -0.1493
    2PHE    SC1  318   4.868   0.236   9.418  0.2241  0.1965  0.2590
    2PHE    SC2  319   4.605   0.249   9.356  0.3461  0.1497 -0.3311
    2PHE    SC3  320   4.685   0.270   9.614 -0.2201  0.2849 -0.1523
    1GLY     BB  321   5.957  16.027   7.242 -0.3261  0.1160 -0.0399
    2PHE     BB  322   6.169  16.092   7.386 -0.0735  0.2862 -0.1178
    2PHE    SC1  323   6.463  16.025   7.232  0.0893 -0.4330  0.1849
    2PHE    SC2  324   6.665  16.155   7.110 -0.0847 -0.1857  0.1532
    2PHE    SC3  325   6.668  15.886   7.124  0.2098 -0.1898  0.0923
    1GLY     BB  326  12.429   0.100  10.912  0.1606  0.5206  0.0011
    2PHE     BB  327  12.342  -0.094  11.064 -0.1118  0.0758 -0.2168
    2PHE    SC1  328  12.346  -0.145  11.327 -0.0319  0.2112  0.0621
    2PHE    SC2  329  12.343  -0.229  11.584 -0.1804 -0.1961 -0.0648
    2PHE    SC3  330  12.306   0.032  11.527 -0.1097 -0.0940  0.3259
    1GLY     BB  331   4.343   5.097  11.869 -0.1552 -0.3386 -0.1466
    2PHE     BB  332   4.437   4.921  12.045  0.2322 -0.2947 -0.0062
    2PHE    SC1  333   4.692   4.806  11.979  0.1006  0.0618 -0.1356
    2PHE    SC2  334   4.753   4.609  11.804  0.2170  0.1431 -0.1885
    2PHE    SC3  335   4.949   4.762  11.908  0.1558  0.0566  0.0619
    1GLY     BB  336   2.953   1.438  14.316 -0.0074 -0.2461 -0.0780
    2PHE     BB  337   2.889   1.596  14.524  0.1751  0.2315  0.0617
    2PHE    SC1  338   3.019   1.676  14.784 -0.3420  0.0052  0.1667
    2PHE    SC2  339   3.259   1.679  14.909 -0.1979 -0.0395 -0.1025
    2PHE    SC3  340   3.051   1.817  15.012 -0.0848 -0.0784  0.1857
    1GLY     BB  341  10.845   0.260   7.086 -0.1274 -0.1288 -0.0491
    2PHE     BB  342  10.555   0.311   7.100 -0.1618 -0.2413  0.0871
    2PHE    SC1  343  10.491   0.501   6.886  0.2568  0.1923 -0.0058
    2PHE    SC2  344  10.524   0.532   6.620  0.0950 -0.0342 -0.0547
    2PHE    SC3  345  10.424   0.735   6.767  0.1485  0.0789 -0.1723
    1GLY     BB  346   9.347  12.139  10.734  0.1232 -0.1516  0.0978
    2PHE     BB  347   9.263  12.090  10.518  0.1502  0.0281 -0.1205
    2PHE    SC1  348   8.985  11.928  10.515  0.2472 -0.1959 -0.2494
    2PHE    SC2  349   8.790  11.770  10.616  0.1307  0.0336 -0.1066
    2PHE    SC3  350   8.755  11.891  10.377  0.0204  0.2140 -0.0016
    1GLY     BB  351   6.768  13.491  15.736  0.0290 -0.0049  0.2622
    2PHE     BB  352   6.928  13.615  15.560  0.1581  0.0454  0.3266
    2PHE    SC1  353   6.735  13.673  15.274 -0.4081  0.1314  0.0721
    2PHE    SC2  354   6.498  13.720  15.155 -0.3192 -0.0290 -0.1787
    2PHE    SC3  355   6.723  13.711  15.006 -0.2700 -0.7636 -0.0934
    1GLY     BB  356   7.257  16.261   6.673 -0.2897  0.2343  0.1501
    2PHE     BB  357   7.054  16.134   6.403 -0.2828 -0.0319  0.0670
    2PHE    SC1  358   6.774  16.130   6.497  0.3430 -0.0274  0.1462
    2PHE    SC2  359   6.633  16.284   6.668 -0.2157 -0.0115 -0.3021
    2PHE    SC3  360   6.597  16.017   6.667 -0.0680 -0.0323 -0.2676
    1GLY     BB  361   3.038  13.074  13.120 -0.0975 -0.1764 -0.0114
    2PHE     BB  362   3.069  13.277  12.942 -0.0003  0.6073 -0.2831
    2PHE    SC1  363   3.027  13.556  12.855  0.2397  0.0534 -0.1448
    2PHE    SC2  364   2.882  13.782  12.828  0.1346 -0.0395 -0.3864
    2PHE    SC3  365   3.127  13.791  12.942 -0.0233  0.1312 -0.0461
    1GLY     BB  366   3.368   7.464  11.186 -0.0644 -0.2005 -0.1007
    2PHE     BB  367   3.281   7.721  11.084 -0.0942 -0.1412 -0.2121
    2PHE    SC1  368   3.285   8.016  11.219  0.1669 -0.0015 -0.1148
    2PHE    SC2  369   3.231   8.270  11.145  0.0763 -0.1344 -0.5360
    2PHE    SC3  370   3.050   8.130  11.288  0.2667  0.1377  0.0008
    1GLY     BB  371  11.656  13.868  15.806 -0.0488 -0.2171  0.0794
    2PHE     BB  372  11.716  14.010  15.954  0.4301  0.1331  0.3000
    2PHE    SC1  373  11.666  14.001  16.272  0.2378  0.1943  0.0263
    2PHE    SC2  374  11.534  13.915  16.491 -0.3395 -0.1461 -0.4221
    2PHE    SC3  375  11.549  14.180  16.438 -0.0044 -0.0396  0.1148
    1GLY     BB  376   6.078  14.284  14.677  0.0964  0.2200  0.3197
    2PHE     BB  377   6.107  14.141  14.897 -0.0728  0.1769 -0.0478
    2PHE    SC1  378   6.009  14.078  15.162 -0.3299 -0.0862 -0.1131
    2PHE    SC2  379   5.808  14.096  15.342  0.0358 -0.2360  0.3316
    2PHE    SC3  380   6.006  13.916  15.379  0.2294 -0.1318 -0.1249
    1GLY     BB  381  11.215   2.506   2.255  0.0941 -0.1147 -0.1066
    2PHE     BB  382  11.545   2.725   2.013 -0.0838 -0.0537 -0.0343
    2PHE    SC1  383  11.651   2.461   1.895 -0.1868 -0.1238 -0.0177
    2PHE    SC2  384  11.756   2.306   1.700 -0.4121 -0.2580 -0.0358
    2PHE    SC3  385  11.804   2.248   1.959 -0.1782 -0.1264 -0.0469
    1GLY     BB  386  15.428  14.918  16.391 -0.0139  0.5275  0.2516
    2PHE     BB  387  15.485  14.676  16.441  0.0461  0.2890 -0.2557
    2PHE    SC1  388  15.568  14.533  16.684  0.1802  0.0871  0.0942
    2PHE    SC2  389  15.570  14.487  16.950 -0.0862 -0.2948  0.0382
    2PHE    SC3  390  15.770  14.393  16.795  0.2345  0.1956  0.1332
    1GLY     BB  391   4.783   9.214   8.180  0.2029  0.0411 -0.1916
    2PHE     BB  392   4.466   9.219   8.245 -0.0005  0.0343 -0.1657
    2PHE    SC1  393   4.298   8.969   8.257 -0.1228  0.0767  0.0080
    2PHE    SC2  394   4.163   8.735   8.237  0.2039 -0.1110 -0.0693
    2PHE    SC3  395   4.297   8.795   8.464  0.2660 -0.0804 -0.1135
    1GLY     BB  396  15.576   1.312   9.202 -0.2976  0.0565 -0.1087
    2PHE     BB  397  15.807   1.307   9.307  0.0525  0.3686 -0.0118
    2PHE    SC1  398  16.004   1.342   9.514  0.2029 -0.2851 -0.2111
    2PHE    SC2  399  16.113   1.251   9.743  0.1886  0.1725 -0.0125
    2PHE    SC3  400  16.268   1.375   9.560  0.1496  0.0585 -0.1238
    1GLY     BB  401   4.080   8.086   4.881 -0.2614 -0.2738  0.0585
    2PHE     BB  402   4.034   8.295   4.628  0.2187 -0.3156 -0.0762
    2PHE    SC1  403   4.207   8.268   4.392 -0.2775 -0.0166 -0.0533
    2PHE    SC2  404   4.286   8.400   4.170 -0.0947 -0.3093 -0.1694
    2PHE    SC3  405   4.470   8.290   4.335 -0.2327 -0.1648  0.0877
    1GLY     BB  406  12.897  15.333   2.391  0.1999  0.1279 -0.1122
    2PHE     BB  407  12.901  15.468   2.570 -0.3077  0.2088  0.1141
    2PHE    SC1  408  12.728  15.616   2.764  0.0754 -0.5519 -0.0645
    2PHE    SC2  409  12.501  15.662   2.903 -0.0565 -0.0266 -0.4209
    2PHE    SC3  410  12.741  15.720   3.013 -0.0994 -0.3597 -0.1327
    1GLY     BB  411   0.926  15.809   8.110  0.0713 -0.0548  0.3782
    2PHE     BB  412   0.870  15.585   8.011 -0.1246  0.1245  0.0044
    2PHE    SC1  413   0.823  15.363   7.808 -0.1984 -0.1872 -0.0384
    2PHE    SC2  414   0.857  15.120   7.695  0.0839 -0.1209 -0.1057
    2PHE    SC3  415   0.616  15.242   7.684  0.0086 -0.2823 -0.3008
    1GLY     BB  416   1.344   6.100  11.980 -0.2912 -0.1595 -0.4139
    2PHE     BB  417   1.199   5.930  11.815  0.0385 -0.0746  0.4811
    2PHE    SC1  418   0.994   5.732  11.819  0.0687 -0.0283  0.0600
    2PHE    SC2  419   0.729   5.731  11.764  0.1825 -0.0734 -0.5620
    2PHE    SC3  420   0.856   5.500  11.824  0.0346 -0.0078  0.0741
    1GLY     BB  421  10.398  13.810  11.985 -0.0852  0.1718 -0.1817
    2PHE     BB  422  10.194  13.829  12.190  0.1099 -0.1724 -0.0458
    2PHE    SC1  423   9.885  13.869  12.170 -0.1276 -0.0534 -0.0724
    2PHE    SC2  424   9.632  13.950  12.123 -0.0898  0.1069 -0.0058
    2PHE    SC3  425   9.686  13.790  12.334 -0.2012 -0.2988 -0.2731
    1GLY     BB  426   8.671   9.468   0.265 -0.0001 -0.1470 -0.1931
    2PHE     BB  427   8.844   9.466   0.611 -0.0451  0.3018 -0.1116
    2PHE    SC1  428   8.814   9.203   0.717  0.1394 -0.1951 -0.0259
    2PHE    SC2  429   8.860   9.112   0.967  0.1887 -0.4698 -0.1306
    2PHE    SC3  430   9.003   9.015   0.760  0.1009 -0.2955 -0.2764
    1GLY     BB  431   5.966  13.485   8.925  0.3651  0.2132 -0.0838
    2PHE     BB  432   5.938  13.114   8.895 -0.2930  0.1149  0.0241
    2PHE    SC1  433   6.038  13.112   8.595  0.2108  0.0105 -0.0355
    2PHE    SC2  434   6.020  13.258   8.368  0.1203 -0.1904 -0.1606
    2PHE    SC3  435   6.083  12.996   8.355 -0.4843 -0.3590 -0.0104
    1GLY     BB  436  16.248  11.617  10.322  0.1155 -0.1679  0.0012
    2PHE     BB  437  16.360  11.672  10.438  0.3745  0.1403 -0.0991
    2PHE    SC1  438  16.618  11.588  10.570  0.1585  0.0359 -0.0653
    2PHE    SC2  439  16.719  11.519  10.811 -0.0190  0.2321  0.0682
    2PHE    SC3  440  16.884  11.606  10.616  0.1596 -0.1850  0.0246
    1GLY     BB  441  13.711  10.639  13.640 -0.0430 -0.0018 -0.2250
    2PHE     BB  442  13.946  10.850  13.572 -0.1334  0.1775  0.0203
    2PHE    SC1  443  14.244  10.777  13.647 -0.0836  0.2402  0.1308
    2PHE    SC2  444  14.472  10.712  13.517 -0.3031  0.1293 -0.2140
    2PHE    SC3  445  14.483  10.840  13.755  0.1193 -0.1043 -0.0979
    1GLY     BB  446  15.699   2.318  10.647  0.2212 -0.1007 -0.0693
    2PHE     BB  447  15.472   2.360  10.680  0.0247  0.1935  0.1461
    2PHE    SC1  448  15.363   2.536  10.866  0.2213 -0.0198 -0.5504
    2PHE    SC2  449  15.315   2.741  11.034  0.2927 -0.2056 -0.2970
    2PHE    SC3  450  15.198   2.735  10.791  0.0782 -0.0003 -0.2030
    1GLY     BB  451   1.038  10.700  12.392 -0.2539 -0.0283 -0.1007
    2PHE     BB  452   1.008  10.447  12.434  0.2782  0.0772 -0.0829
    2PHE    SC1  453   0.982  10.404  12.754  0.0324 -0.0139  0.0491
    2PHE    SC2  454   1.036  10.269  12.981  0.0226  0.0887  0.1130
    2PHE    SC3  455   0.787  10.364  12.937  0.0882  0.2967  0.1819
    1GLY     BB  456  15.084   2.563   2.581 -0.1192 -0.1615  0.1572
    2PHE     BB  457  15.246   2.241   2.581  0.2342  0.3074 -0.0273
    2PHE    SC1  458  15.152   2.060   2.842 -0.0729 -0.0111  0.0380
    2PHE    SC2  459  15.140   2.009   3.107 -0.1361  0.1236  0.0619
    2PHE    SC3  460  14.920   1.979   2.953 -0.0475 -0.1591 -0.0152
    1GLY     BB  461   2.981  15.891   9.904  0.0407  0.0256 -0.3709
    2PHE     BB  462   3.113  15.740  10.021  0.4005 -0.2610  0.0746
    2PHE    SC1  463   3.293  15.735  10.240 -0.1449  0.2039  0.0596
    2PHE    SC2  464   3.419  15.538  10.376  0.2393  0.3655 -0.0470
    2PHE    SC3  465   3.519  15.788  10.379  0.0104  0.4649 -0.2783
    1GLY     BB  466   5.707  11.703   1.577  0.0025  0.0589 -0.2419
    2PHE     BB  467   5.725  11.846   1.736  0.4491  0.1560 -0.1336
    2PHE    SC1  468   5.684  11.844   2.048  0.0530 -0.0262  0.3360
    2PHE    SC2  469   5.630  11.813   2.311  0.1816 -0.1753  0.3463
    2PHE    SC3  470   5.883  11.862   2.230  0.1396 -0.1129  0.2508
    1GLY     BB  471  14.029  14.063   5.423 -0.1289  0.0921  0.0364
    2PHE     BB  472  14.222  13.854   5.541  0.2858 -0.0026  0.2200
    2PHE    SC1  473  14.471  13.682   5.531 -0.1946 -0.0585 -0.2018
    2PHE    SC2  474  14.650  13.557   5.373  0.0781  0.1504 -0.0674
    2PHE    SC3  475  14.714  13.616   5.629 -0.2630  0.0444  0.0476
    1GLY     BB  476   8.269  13.760   3.935 -0.1512 -0.1707  0.0925
    2PHE     BB  477   8.077  14.089   3.688 -0.1758 -0.3669  0.2266
    2PHE    SC1  478   8.326  14.117   3.550 -0.1742  0.0192  0.0479
    2PHE    SC2  479   8.441  14.088   3.308 -0.2971 -0.2101  0.0139
    2PHE    SC3  480   8.530  13.943   3.517 -0.2317 -0.0574  0.0937
    1GLY     BB  481  13.477   1.600   2.350 -0.2016  0.1535 -0.1592
    2PHE     BB  482  13.316   1.499   2.478  0.5371  0.3229 -0.1575
    2PHE    SC1  483  13.000   1.566   2.577 -0.2224  0.0796  0.3904
    2PHE    SC2  484  12.773   1.429   2.524 -0.1666  0.1673 -0.1237
    2PHE    SC3  485  12.766   1.698   2.548 -0.1749  0.1379  0.2680
    1GLY     BB  486   4.318  14.717   9.908 -0.1506  0.2242  0.1663
    2PHE     BB  487   3.982  14.834   9.954  0.0791 -0.0341 -0.0345
    2PHE    SC1  488   3.994  15.044   9.785 -0.1095  0.0471  0.2078
    2PHE    SC2  489   4.143  15.248   9.692  0.2592 -0.1823  0.2767
    2PHE    SC3  490   3.883  15.228   9.622  0.3344  0.0567 -0.0981
    1GLY     BB  491   5.356  12.967   4.786 -0.0829  0.0461  0.0694
    2PHE     BB  492   5.062  13.195   4.450 -0.0475  0.0961 -0.0371
    2PHE    SC1  493   4.888  12.965   4.535  0.3620  0.0738  0.3580
    2PHE    SC2  494   4.887  12.699   4.577 -0.0767  0.0154  0.0498
    2PHE    SC3  495   4.725  12.806   4.390 -0.1758  0.5412  0.4134
    1GLY     BB  496   0.706  15.779  13.352 -0.0660  0.0430  0.0078
    2PHE     BB  497   0.640  16.010  13.387  0.1889  0.0864 -0.0025
    2PHE    SC1  498   0.614  16.157  13.115  0.0516 -0.2772  0.0598
    2PHE    SC2  499   0.747  16.156  12.880 -0.0280 -0.0733  0.0120
    2PHE    SC3  500   0.483  16.099  12.887 -0.0179 -0.1148  0.0566
    1GLY     BB  501   1.476   1.926  10.735 -0.0355  0.0221 -0.0968
    2PHE     BB  502   1.463   2.138  10.650  0.2256  0.0332 -0.2264
    2PHE    SC1  503   1.599   2.399  10.489  0.0824 -0.0865 -0.1286
    2PHE    SC2  504   1.658   2.493  10.243 -0.3367  0.0076 -0.2021
    2PHE    SC3  505   1.761   2.613  10.462  0.1071 -0.1280 -0.3246
    1GLY     BB  506   0.520   7.734   1.800 -0.2349  0.0575 -0.2557
    2PHE     BB  507   0.220   7.990   1.584 -0.1696 -0.0343 -0.0976
    2PHE    SC1  508   0.281   8.298   1.658 -0.0336 -0.0839  0.1304
    2PHE    SC2  509   0.278   8.470   1.450  0.0405 -0.1094  0.1078
    2PHE    SC3  510   0.269   8.564   1.703  0.3397 -0.0563  0.1023
    1GLY     BB  511  10.623  12.193   9.030  0.0375 -0.0968 -0.0694
    2PHE     BB  512  10.428  12.018   9.014 -0.4806  0.1832  0.0315
    2PHE    SC1  513  10.372  11.750   9.224 -0.0075  0.3064  0.1224
    2PHE    SC2  514  10.500  11.546   9.346  0.0762  0.1592 -0.2026
    2PHE    SC3  515  10.235  11.582   9.386  0.0368 -0.0827 -0.2281
    1GLY     BB  516   5.490   3.503   1.092  0.1805  0.1367  0.2074
    2PHE     BB  517   5.319   3.510   0.870 -0.0704 -0.2294  0.3337
    2PHE    SC1  518   5.366   3.727   0.677  0.0455  0.1305 -0.1259
    2PHE    SC2  519   5.369   3.877   0.452 -0.1508  0.1407 -0.1239
    2PHE    SC3  520   5.257   3.974   0.678 -0.1031  0.0662 -0.0674
    1GLY     BB  521   6.554   6.808  10.797 -0.2615  0.0498 -0.1554
    2PHE     BB  522   6.602   6.617  10.620 -0.1497  0.0158 -0.2219
    2PHE    SC1  523   6.561   6.329  10.581  0.1726 -0.0317  0.3097
    2PHE    SC2  524   6.510   6.088  10.692  0.1478 -0.1158  0.1188
    2PHE    SC3  525   6.484   6.123  10.425  0.2538  0.0707  0.1310
    1GLY     BB  526   8.551  10.111  14.191  0.2275 -0.2151  0.1419
    2PHE     BB  527   8.681  10.151  14.010 -0.2086 -0.0169  0.1260
    2PHE    SC1  528   8.559  10.204  13.722 -0.1833 -0.2794 -0.1825
    2PHE    SC2  529   8.499  10.427  13.582 -0.2749  0.0109  0.2971
    2PHE    SC3  530   8.307  10.245  13.633 -0.3213  0.0652  0.3193
    1GLY     BB  531  12.629   2.627   3.841 -0.1385 -0.0853 -0.0606
    2PHE     BB  532  12.768   2.425   3.886  0.2001 -0.1300  0.0122
    2PHE    SC1  533  12.981   2.230   3.740 -0.1207 -0.0383 -0.3952
    2PHE    SC2  534  13.239   2.296   3.694 -0.1227  0.1594 -0.1481
    2PHE    SC3  535  13.103   2.148   3.513  0.2308 -0.1497 -0.1748
    1GLY     BB  536   8.899  16.096  15.668 -0.0268 -0.1432  0.2654
    2PHE     BB  537   9.012  16.316  15.831 -0.2789 -0.2754  0.1795
    2PHE    SC1  538   9.278  16.461  15.699  0.3128 -0.1609  0.0317
    2PHE    SC2  539   9.547  16.469  15.720  0.3403 -0.0611 -0.3007
    2PHE    SC3  540   9.414  16.674  15.605  0.0808  0.0652  0.1948
    1GLY     BB  541   4.221   1.567  10.524  0.1118  0.1975  0.1315
    2PHE     BB  542   3.960   1.447  10.628 -0.0662  0.1211 -0.0154
    2PHE    SC1  543   4.055   1.202  10.808 -0.0720  0.0694 -0.0605
    2PHE    SC2  544   4.136   0.944  10.814 -0.0750  0.0684 -0.0642
    2PHE    SC3  545   3.969   1.038  11.004  0.1419  0.1387  0.0941
    1GLY     BB  546   4.389  10.523  16.129  0.2039  0.2164 -0.3540
    2PHE     BB  547   4.388  10.682  16.331 -0.2211 -0.2428  0.0520
    2PHE    SC1  548   4.329  10.882  16.560  0.0533  0.0122 -0.0493
    2PHE    SC2  549   4.333  11.110  16.706  0.3581 -0.0930  0.1160
    2PHE    SC3  550   4.261  10.877  16.822  0.3309 -0.1314  0.0231
    1GLY     BB  551   5.187   0.058   9.837 -0.1873 -0.2488 -0.0737
    2PHE     BB  552   5.192  -0.130   9.802 -0.3272 -0.0587  0.2212
    2PHE    SC1  553   5.047  -0.400   9.697  0.3012  0.2538  0.1034
    2PHE    SC2  554   4.878  -0.598   9.622  0.3288  0.1959  0.1933
    2PHE    SC3  555   5.140  -0.651   9.663  0.3535  0.2690  0.1335
    1GLY     BB  556  13.406   2.472   1.231 -0.0201 -0.1995 -0.0931
    2PHE     BB  557  13.625   2.435   1.022 -0.3089  0.3293  0.0336
    2PHE    SC1  558  13.855   2.313   1.187 -0.2641  0.0529  0.3592
    2PHE    SC2  559  13.982   2.163   1.373  0.0777 -0.2597 -0.1055
    2PHE    SC3  560  14.124   2.294   1.184 -0.2379  0.3758  0.0714
    1GLY     BB  561  10.127  15.514   4.597 -0.3002  0.2067  0.2218
    2PHE     BB  562  10.244  15.674   4.303 -0.0812 -0.0811  0.0110
    2PHE    SC1  563  10.578  15.733   4.351  0.3153 -0.1062 -0.2860
    2PHE    SC2  564  10.683  15.965   4.441  0.1909 -0.1829  0.0731
    2PHE    SC3  565  10.836  15.743   4.427  0.2002 -0.1809  0.1394
    1GLY     BB  566   2.030   1.932  10.834  0.0867 -0.2840  0.4087
    2PHE     BB  567   1.925   2.191  10.847 -0.0582  0.2323  0.3026
    2PHE    SC1  568   2.011   2.473  10.826 -0.1580 -0.0974  0.0423
    2PHE    SC2  569   2.097   2.721  10.765  0.1421 -0.1622  0.1831
    2PHE    SC3  570   1.904   2.687  10.951 -0.0295 -0.0272  0.0333
    1GLY     BB  571  11.133   0.678   9.035  0.1126  0.0924  0.1817
    2PHE     BB  572  11.494   0.771   9.021  0.4566 -0.0374 -0.1592
    2PHE    SC1  573  11.425   1.068   9.046  0.1322  0.0611  0.2626
    2PHE    SC2  574  11.255   1.273   9.090 -0.0608 -0.0359 -0.0046
    2PHE    SC3  575  11.520   1.320   9.069 -0.1141  0.2076 -0.1913
    1GLY     BB  576  15.632  10.820  13.858  0.2570 -0.1152  0.0528
    2PHE     BB  577  15.785  10.969  13.689 -0.2944 -0.0069 -0.0607
    2PHE    SC1  578  16.023  10.753  13.635 -0.0255 -0.0531  0.0473
    2PHE    SC2  579  16.073  10.508  13.737 -0.3140 -0.1013  0.0804
    2PHE    SC3  580  16.226  10.604  13.537 -0.1293 -0.2617  0.1414
    1GLY     BB  581  14.995   7.175   1.293  0.0336 -0.1148 -0.3709
    2PHE     BB  582  14.679   7.341   1.275  0.0982  0.0206  0.1396
    2PHE    SC1  583  14.514   7.091   1.360 -0.2100  0.0655  0.0249
    2PHE    SC2  584  14.613   6.845   1.409  0.0456  0.1324 -0.1335
    2PHE    SC3  585  14.420   6.878   1.223 -0.1776  0.0212  0.0712
    1GLY     BB  586   5.684   0.121   6.665  0.1782  0.2485  0.1027
    2PHE     BB  587   5.797   0.070   6.985 -0.3010 -0.0564  0.1739
    2PHE    SC1  588   6.089   0.011   6.904  0.2290 -0.1742 -0.0833
    2PHE    SC2  589   6.255  -0.202   6.888  0.1063 -0.2983  0.2227
    2PHE    SC3  590   6.341   0.028   7.000  0.1817 -0.2433  0.0551
    1GLY     BB  591   8.788   0.253   8.154 -0.3404 -0.4211  0.0756
    2PHE     BB  592   8.665  -0.019   8.255  0.4496 -0.0458  0.5176
    2PHE    SC1  593   8.806  -0.190   8.415  0.1652 -0.1281 -0.1108
    2PHE    SC2  594   8.750  -0.384   8.594  0.0535 -0.2348 -0.2586
    2PHE    SC3  595   9.004  -0.347   8.509  0.0622 -0.3752 -0.2955
    1GLY     BB  596   2.574  10.575  10.758  0.0398 -0.1218  0.0046
    2PHE     BB  597   2.395  10.812  10.974 -0.1106 -0.3654  0.5655
    2PHE    SC1  598   2.473  10.811  11.276  0.1469  0.0165  0.1185
    2PHE    SC2  599   2.563  10.695  11.503  0.0280  0.0365  0.1767
    2PHE    SC3  600   2.635  10.949  11.443  0.1671 -0.0141  0.1243
    1GLY     BB  601   0.086   9.997   3.286  0.1992  0.1686 -0.1632
    2PHE     BB  602  -0.184   9.813   3.035  0.1284  0.4199  0.0658
    2PHE    SC1  603  -0.352   9.750   3.311 -0.0269  0.0579 -0.0177
    2PHE    SC2  604  -0.380   9.695   3.574 -0.3155 -0.0678 -0.0704
    2PHE    SC3  605  -0.593   9.776   3.430 -0.1876 -0.1201 -0.2942
    1GLY     BB  606   7.172  12.283  15.425 -0.3433  0.2289 -0.2401
    2PHE     BB  607   6.911  12.410  15.331 -0.0699  0.2879 -0.3928
    2PHE    SC1  608   6.722  12.622  15.390 -0.1720  0.0054  0.5997
    2PHE    SC2  609   6.616  12.801  15.219 -0.0583 -0.2833  0.2140
    2PHE    SC3  610   6.782  12.884  15.414 -0.0038  0.0312  0.0410
    1GLY     BB  611  14.801  11.942  14.991 -0.3754  0.0868  0.0177
    2PHE     BB  612  14.798  11.831  14.578  0.1250  0.0254 -0.2988
    2PHE    SC1  613  14.560  11.835  14.394  0.0596 -0.3869  0.1151
    2PHE    SC2  614  14.315  11.728  14.434 -0.0296 -0.1777  0.1417
    2PHE    SC3  615  14.343  11.947  14.278  0.2036 -0.4735 -0.2510
    1GLY     BB  616   7.702   7.050  14.138 -0.0149 -0.2002  0.2289
    2PHE     BB  617   7.528   6.900  14.067 -0.0058  0.1319  0.0273
    2PHE    SC1  618   7.592   6.598  14.103  0.0588 -0.0314  0.4648
    2PHE    SC2  619   7.773   6.431  13.992  0.2916  0.4562  0.0693
    2PHE    SC3  620   7.510   6.398  13.941  0.3294  0.1966  0.0261
    1GLY     BB  621   2.127   9.501  13.671 -0.0434  0.1181 -0.3153
    2PHE     BB  622   2.136   9.532  13.427 -0.1051 -0.4657  0.0487
    2PHE    SC1  623   1.911   9.509  13.270 -0.0327 -0.0776  0.2925
    2PHE    SC2  624   1.649   9.545  13.214  0.0639  0.0146 -0.1418
    2PHE    SC3  625   1.789   9.351  13.089  0.1229 -0.2938  0.3724
    1GLY     BB  626  11.911  15.555   3.733  0.1348 -0.1806 -0.0987
    2PHE     BB  627  11.885  15.803   3.787 -0.1816 -0.1113  0.2013
    2PHE    SC1  628  11.702  15.969   3.966 -0.0222  0.1001  0.1409
    2PHE    SC2  629  11.615  16.222   3.996  0.1592  0.1947 -0.1000
    2PHE    SC3  630  11.782  16.114   4.178  0.1694  0.2871 -0.0541
    1GLY     BB  631  13.136  11.307  13.533 -0.0625  0.1441 -0.2406
    2PHE     BB  632  13.347  11.497  13.509  0.0377  0.0512 -0.2468
    2PHE    SC1  633  13.465  11.704  13.696 -0.0112 -0.3204  0.2230
    2PHE    SC2  634  13.529  11.965  13.726 -0.1672 -0.2630  0.0729
    2PHE    SC3  635  13.479  11.813  13.943 -0.0628 -0.1724  0.1618
    1GLY     BB  636  13.038   2.166   4.821 -0.0088 -0.0555 -0.1084
    2PHE     BB  637  13.019   2.024   4.547 -0.1819  0.1010 -0.0161
    2PHE    SC1  638  13.172   2.219   4.371 -0.2724  0.0604 -0.0859
    2PHE    SC2  639  13.345   2.424   4.340  0.0590 -0.1746  0.1358
    2PHE    SC3  640  13.302   2.252   4.136  0.2556 -0.2383  0.1458
    1GLY     BB  641   4.233   0.619   9.509 -0.0754 -0.1136  0.1286
    2PHE     BB  642   3.873   0.577   9.508  0.2239 -0.2085 -0.1198
    2PHE    SC1  643   3.633   0.435   9.341 -0.0947  0.1914  0.0984
    2PHE    SC2  644   3.636   0.289   9.114 -0.0449  0.0460  0.1911
    2PHE    SC3  645   3.413   0.423   9.185 -0.0065  0.2331 -0.0302
    1GLY     BB  646   3.267  14.408  15.824 -0.1324 -0.0388  0.0213
    2PHE     BB  647   3.393  14.262  15.453 -0.3060 -0.4029  0.1245
    2PHE    SC1  648   3.119  14.179  15.404 -0.2813  0.1593 -0.0306
    2PHE    SC2  649   2.969  14.001  15.267 -0.0409 -0.0796  0.0097
    2PHE    SC3  650   2.877  14.251  15.308 -0.3333 -0.1569 -0.1492
    1GLY     BB  651  14.366   7.285   3.450  0.0197 -0.1382 -0.1059
    2PHE     BB  652  14.284   6.971   3.643 -0.0343 -0.0214  0.3075
    2PHE    SC1  653  14.324   6.785   3.423 -0.0325  0.1381 -0.1737
    2PHE    SC2  654  14.248   6.559   3.297 -0.0670  0.0830 -0.0556
    2PHE    SC3  655  14.494   6.663   3.253 -0.0595  0.0357 -0.1276
    1GLY     BB  656  15.221   9.899  13.336  0.0695 -0.1977 -0.1589
    2PHE     BB  657  15.333   9.863  13.193 -0.2216 -0.2129 -0.0738
    2PHE    SC1  658  15.669   9.826  13.261  0.0263 -0.2973  0.1145
    2PHE    SC2  659  15.896   9.687  13.306  0.2136 -0.0423 -0.0157
    2PHE    SC3  660  15.890   9.953  13.351 -0.0985 -0.0656  0.1011
    1GLY     BB  661  12.771  12.313   9.639 -0.0699  0.0105  0.0227
    2PHE     BB  662  13.005  12.368   9.726 -0.0164  0.3081  0.1578
    2PHE    SC1  663  13.222  12.322   9.529 -0.2672 -0.0979 -0.2403
    2PHE    SC2  664  13.362  12.337   9.299 -0.0498 -0.1951 -0.1174
    2PHE    SC3  665  13.489  12.280   9.530 -0.2048  0.2586  0.0910
    1GLY     BB  666  15.771  16.215   0.228  0.1535 -0.2527  0.2488
    2PHE     BB  667  15.660  16.347   0.194  0.3280 -0.0455  0.0084
    2PHE    SC1  668  15.541  16.605   0.055 -0.0778 -0.0839  0.0733
    2PHE    SC2  669  15.521  16.730  -0.183  0.3166 -0.0371  0.0583
    2PHE    SC3  670  15.582  16.871   0.039 -0.0244 -0.0844  0.1885
    1GLY     BB  671   0.714   5.055   8.843 -0.0459 -0.2072  0.1164
    2PHE     BB  672   0.716   4.892   8.532  0.1893  0.0061  0.1696
    2PHE    SC1  673   0.698   4.570   8.548 -0.0103  0.1435 -0.0782
    2PHE    SC2  674   0.511   4.376   8.529 -0.0141  0.1655 -0.2908
    2PHE    SC3  675   0.739   4.331   8.667 -0.1797  0.1434 -0.0184
    1GLY     BB  676   9.367   7.945   5.842  0.1934 -0.1435  0.0252
    2PHE     BB  677   9.329   8.151   6.013 -0.0741  0.4522  0.2155
    2PHE    SC1  678   9.583   8.231   6.201 -0.0738 -0.1430  0.0159
    2PHE    SC2  679   9.703   8.394   6.381 -0.3047 -0.3158  0.3368
    2PHE    SC3  680   9.853   8.239   6.217 -0.0697  0.3651 -0.1353
    1GLY     BB  681   5.596  13.697   5.188  0.5418  0.2594  0.2155
    2PHE     BB  682   5.849  13.981   5.240 -0.2349  0.2245 -0.0265
    2PHE    SC1  683   5.929  13.912   5.518  0.0746  0.0710 -0.1212
    2PHE    SC2  684   5.822  13.940   5.765 -0.2053  0.1215 -0.2442
    2PHE    SC3  685   6.063  13.822   5.735 -0.1603  0.1295  0.0530
    1GLY     BB  686   1.766  12.260  10.624  0.7222  0.1194  0.4006
    2PHE     BB  687   1.614  11.932  10.664 -0.0954 -0.0675  0.3930
    2PHE    SC1  688   1.365  11.912  10.805 -0.0035 -0.1405  0.0703
    2PHE    SC2  689   1.136  11.786  10.738  0.1481 -0.4147  0.0487
    2PHE    SC3  690   1.186  11.848  10.997 -0.2347  0.2380 -0.0095
    1GLY     BB  691   6.359   6.257   9.949 -0.0329 -0.1361  0.4493
    2PHE     BB  692   6.543   6.117   9.910 -0.0643 -0.1877 -0.0872
    2PHE    SC1  693   6.784   6.029  10.047  0.0076 -0.0752 -0.0382
    2PHE    SC2  694   7.051   6.069  10.038 -0.0100  0.1108  0.1804
    2PHE    SC3  695   6.952   5.818  10.035  0.1600  0.0431 -0.0193
    1GLY     BB  696  16.083  10.984  11.651  0.0293  0.1470 -0.1610
    2PHE     BB  697  16.296  10.973  11.667  0.1350 -0.1617  0.0568
    2PHE    SC1  698  16.573  11.079  11.731 -0.0066  0.0304  0.0916
    2PHE    SC2  699  16.829  11.154  11.688 -0.0134 -0.1327 -0.2692
    2PHE    SC3  700  16.756  11.052  11.928  0.1939  0.1648 -0.0724
    1GLY     BB  701   9.866   7.278   5.705  0.4190  0.1605 -0.2079
    2PHE     BB  702   9.703   7.535   5.745  0.2330  0.0195 -0.3241
    2PHE    SC1  703   9.814   7.622   6.018 -0.0372  0.2209 -0.1094
    2PHE    SC2  704   9.966   7.788   6.168  0.0652  0.2220 -0.2131
    2PHE    SC3  705   9.732   7.695   6.265  0.2154  0.0779  0.0216
    1GLY     BB  706  13.370   3.553  15.959  0.3855 -0.1008  0.0851
    2PHE     BB  707  13.230   3.648  16.227 -0.1046  0.3416 -0.2869
    2PHE    SC1  708  13.081   3.891  16.127 -0.4053 -0.4172  0.1887
    2PHE    SC2  709  12.829   3.969  16.068 -0.1731  0.0537 -0.2657
    2PHE    SC3  710  12.988   4.128  16.218 -0.1313 -0.2333  0.0053
    1GLY     BB  711  14.728   9.696   9.327 -0.0767  0.1572 -0.0816
    2PHE     BB  712  15.013   9.502   9.319  0.1497  0.2346 -0.0668
    2PHE    SC1  713  15.235   9.674   9.394 -0.1105  0.0361 -0.2992
    2PHE    SC2  714  15.307   9.923   9.468 -0.0883 -0.1106  0.2125
    2PHE    SC3  715  15.496   9.736   9.421 -0.1102 -0.0912  0.0412
    1GLY     BB  716   9.347   4.918   2.311 -0.3052 -0.2606  0.0871
    2PHE     BB  717   9.221   4.628   2.433 -0.3019 -0.1825 -0.0280
    2PHE    SC1  718   9.341   4.383   2.320 -0.0737 -0.1533  0.1462
    2PHE    SC2  719   9.420   4.208   2.130 -0.0948 -0.2041  0.1841
    2PHE    SC3  720   9.258   4.126   2.330  0.2738 -0.2637  0.4716
    1GLY     BB  721  14.114  11.178  11.941 -0.1824  0.0802 -0.1138
    2PHE     BB  722  14.250  10.997  11.727 -0.2246 -0.1418  0.1361
    2PHE    SC1  723  14.251  10.709  11.828  0.1556 -0.2362 -0.2735
    2PHE    SC2  724  14.153  10.463  11.878 -0.1207 -0.0761  0.0113
    2PHE    SC3  725  14.188  10.638  12.081 -0.0071  0.1485 -0.1973
    1GLY     BB  726  14.669  10.075   7.573 -0.0118 -0.0166  0.1930
    2PHE     BB  727  14.408  10.063   7.540  0.2280 -0.0295 -0.2017
    2PHE    SC1  728  14.205   9.851   7.457 -0.3587  0.2210  0.0859
    2PHE    SC2  729  14.146   9.682   7.255  0.0522  0.0189  0.1254
    2PHE    SC3  730  14.111   9.603   7.510 -0.0944  0.1289  0.1402
    1GLY     BB  731   8.360   2.652   5.615 -0.1067  0.1312 -0.0699
    2PHE     BB  732   8.135   2.510   5.449  0.1344 -0.2327  0.0373
    2PHE    SC1  733   8.073   2.201   5.522 -0.1302  0.2030 -0.1781
    2PHE    SC2  734   8.240   2.041   5.661 -0.1462  0.2943 -0.0517
    2PHE    SC3  735   8.103   1.942   5.450 -0.1918  0.1292  0.0528
    1GLY     BB  736   0.269   5.690  10.021  0.1027 -0.3120  0.1755
    2PHE     BB  737   0.221   5.637   9.612 -0.2905 -0.1152 -0.1370
    2PHE    SC1  738  -0.063   5.677   9.568  0.0913 -0.0449  0.1621
    2PHE    SC2  739  -0.247   5.657   9.372  0.2860 -0.1452 -0.0140
    2PHE    SC3  740  -0.269   5.851   9.558 -0.0212 -0.1845 -0.0041
    1GLY     BB  741   1.896   7.222   2.157  0.1924 -0.0629  0.0543
    2PHE     BB  742   1.900   7.428   2.008 -0.0776  0.0768 -0.1190
    2PHE    SC1  743   2.058   7.465   1.755  0.0206 -0.1522 -0.1630
    2PHE    SC2  744   2.091   7.656   1.568  0.0562  0.0044  0.0004
    2PHE    SC3  745   2.246   7.435   1.563  0.3520  0.2036  0.0902
    1GLY     BB  746   0.251  14.819  12.363 -0.0522  0.1046  0.0082
    2PHE     BB  747   0.113  14.918  12.503 -0.0421  0.3778 -0.2136
    2PHE    SC1  748  -0.129  15.139  12.471 -0.4066 -0.1601  0.1602
    2PHE    SC2  749  -0.143  15.372  12.606 -0.3720 -0.0211 -0.0703
    2PHE    SC3  750  -0.089  15.372  12.342  0.2095 -0.3188  0.0306
    1GLY     BB  751  14.042  13.692   6.403 -0.0896  0.2720  0.0470
    2PHE     BB  752  14.103  13.463   6.270  0.1958 -0.3554 -0.1715
    2PHE    SC1  753  14.295  13.354   6.063 -0.1314  0.1689  0.0728
    2PHE    SC2  754  14.314  13.405   5.799  0.0068  0.0001  0.0492
    2PHE    SC3  755  14.537  13.397   5.951 -0.0717  0.0880  0.1700
    1GLY     BB  756  10.556   0.990   3.383 -0.0917 -0.2465 -0.0100
    2PHE     BB  757  10.436   0.844   3.268  0.0317 -0.1798 -0.0143
    2PHE    SC1  758  10.164   0.762   3.391 -0.0571 -0.0688 -0.1674
    2PHE    SC2  759   9.922   0.653   3.442 -0.1483  0.0284 -0.3771
    2PHE    SC3  760  10.010   0.862   3.589 -0.2500  0.0775 -0.3853
    1GLY     BB  761  13.849  12.511   5.633  0.1327  0.0063  0.1003
    2PHE     BB  762  13.829  12.632   5.698 -0.1749  0.2381 -0.0831
    2PHE    SC1  763  13.893  12.905   5.850  0.1920  0.3705 -0.2180
    2PHE    SC2  764  13.899  13.168   5.909 -0.1951  0.3464 -0.0394
    2PHE    SC3  765  13.926  12.985   6.106  0.0413  0.2486 -0.1588
    1GLY     BB  766   6.143   9.954  10.945 -0.0581  0.4664 -0.2366
    2PHE     BB  767   5.775   9.945  10.955 -0.0675  0.2254 -0.1050
    2PHE    SC1  768   5.786   9.871  11.288 -0.1438  0.1467  0.0119
    2PHE    SC2  769   5.820   9.657  11.449 -0.0843 -0.0524 -0.2591
    2PHE    SC3  770   6.001   9.857  11.451  0.0129 -0.1399 -0.2097
    1GLY     BB  771   9.519  13.986  12.916  0.2550  0.2898  0.0996
    2PHE     BB  772   9.550  14.175  12.679  0.1894 -0.2597  0.4298
    2PHE    SC1  773   9.758  14.254  12.505  0.1093  0.3823  0.3731
    2PHE    SC2  774   9.864  14.334  12.269 -0.0947 -0.3379  0.0078
    2PHE    SC3  775  10.016  14.198  12.446  0.0028  0.0265  0.2131
    1GLY     BB  776   5.858   2.968   2.382  0.4049  0.2743  0.0064
    2PHE     BB  777   5.566   3.002   2.380  0.0377  0.1564 -0.0334
    2PHE    SC1  778   5.386   2.795   2.271  0.2264 -0.0249 -0.2028
    2PHE    SC2  779   5.215   2.620   2.386  0.0097  0.2191 -0.1449
    2PHE    SC3  780   5.385   2.536   2.195  0.3748 -0.1954  0.3352
    1GLY     BB  781   5.475  11.450  12.316 -0.2432 -0.0244 -0.3983
    2PHE     BB  782   5.658  11.328  12.588 -0.0765 -0.1286  0.0668
    2PHE    SC1  783   5.866  11.475  12.750  0.3431  0.0728 -0.4065
    2PHE    SC2  784   5.875  11.436  13.017 -0.3029  0.0898 -0.3672
    2PHE    SC3  785   5.999  11.649  12.908 -0.2172  0.2072 -0.0524
    1GLY     BB  786  14.627   5.912   1.342  0.1151 -0.0088  0.2085
    2PHE     BB  787  14.663   5.829   1.521  0.0488  0.0040 -0.0926
    2PHE    SC1  788  14.529   5.877   1.808  0.2690 -0.0438  0.1795
    2PHE    SC2  789  14.284   5.888   1.921  0.0492 -0.1687 -0.2623
    2PHE    SC3  790  14.503   5.955   2.065 -0.1861 -0.5433  0.3010
    1GLY     BB  791   6.402  14.445   7.114  0.0390  0.0799  0.0656
    2PHE     BB  792   6.216  14.432   7.312 -0.0762  0.0422  0.3469
    2PHE    SC1  793   6.232  14.178   7.461 -0.0700  0.1322  0.1080
    2PHE    SC2  794   6.159  13.931   7.542  0.1006  0.0461  0.0032
    2PHE    SC3  795   6.309  14.087   7.703  0.1678 -0.0000 -0.0145
    1GLY     BB  796   6.377   9.677  15.211  0.0225  0.3000 -0.1882
    2PHE     BB  797   6.337   9.797  15.323 -0.1558 -0.1353 -0.1015
    2PHE    SC1  798   6.282   9.825  15.668  0.2843  0.5144 -0.0194
    2PHE    SC2  799   6.207   9.723  15.906 -0.0920  0.3923 -0.1806
    2PHE    SC3  800   6.254   9.988  15.881  0.5797  0.3298  0.1676
    1GLY     BB  801  14.847   7.140  14.420 -0.0204  0.0163  0.0841
    2PHE     BB  802  14.776   7.109  14.119  0.3166 -0.1576  0.1231
    2PHE    SC1  803  14.807   7.272  13.860  0.3382  0.3528 -0.2100
    2PHE    SC2  804  14.749   7.177  13.614  0.2550  0.1066 -0.0984
    2PHE    SC3  805  14.839   7.430  13.643  0.1082  0.1938 -0.3643
    1GLY     BB  806  12.328  16.072  12.356 -0.1912 -0.1471 -0.1307
    2PHE     BB  807  12.272  16.125  12.163 -0.4015 -0.1115  0.3569
    2PHE    SC1  808  12.125  16.320  11.990  0.0435 -0.1512  0.1751
    2PHE    SC2  809  11.864  16.389  11.999  0.0547 -0.0695 -0.0533
    2PHE    SC3  810  12.039  16.540  11.860  0.2074 -0.1768  0.0191
    1GLY     BB  811   0.509  10.659   4.817  0.2053  0.0396 -0.1079
    2PHE     BB  812   0.345  10.437   4.825  0.2060  0.1719 -0.0757
    2PHE    SC1  813   0.087  10.395   4.955  0.1283 -0.2827  0.0758
    2PHE    SC2  814  -0.068  10.312   5.159 -0.0513 -0.0408  0.0419
    2PHE    SC3  815  -0.179  10.440   4.949  0.1542 -0.1421 -0.1316
    1GLY     BB  816  10.937   8.572   6.034 -0.0113  0.0052  0.0739
    2PHE     BB  817  10.709   8.554   5.982  0.1006 -0.2399  0.3729
    2PHE    SC1  818  10.488   8.461   6.192 -0.4176  0.3662  0.0688
    2PHE    SC2  819  10.279   8.357   6.327 -0.1305 -0.3016  0.0398
    2PHE    SC3  820  10.530   8.274   6.382  0.0866  0.1087 -0.2727
    1GLY     BB  821  11.096  13.111  11.355  0.1079 -0.1301  0.1379
    2PHE     BB  822  10.918  13.273  11.594  0.1161 -0.0149 -0.2989
    2PHE    SC1  823  10.653  13.234  11.741  0.0027 -0.3203  0.1571
    2PHE    SC2  824  10.438  13.336  11.870 -0.2514 -0.2149 -0.3254
    2PHE    SC3  825  10.507  13.077  11.905 -0.0247 -0.0815  0.3675
    1GLY     BB  826  15.313   6.333   8.021  0.1475 -0.1921  0.2186
    2PHE     BB  827  15.495   6.162   8.043  0.3086  0.1574 -0.1346
    2PHE    SC1  828  15.493   5.947   8.284  0.1393 -0.3391 -0.2148
    2PHE    SC2  829  15.536   5.809   8.512 -0.1409 -0.1386 -0.0336
    2PHE    SC3  830  15.410   5.691   8.304 -0.1027 -0.2473  0.0044
    1GLY     BB  831   0.586   8.303   8.408 -0.1377  0.1609  0.2178
    2PHE     BB  832   0.509   8.603   8.414 -0.0529 -0.1260 -0.1775
    2PHE    SC1  833   0.467   8.801   8.188  0.2419  0.1085  0.1438
    2PHE    SC2  834   0.484   9.006   8.013  0.2187 -0.1491 -0.1695
    2PHE    SC3  835   0.285   8.824   7.990  0.1729 -0.1499  0.1734
    1GLY     BB  836   7.611  14.482   8.381 -0.2587  0.0175  0.0453
    2PHE     BB  837   7.395  14.357   8.435  0.0935 -0.2000 -0.2007
    2PHE    SC1  838   7.283  14.075   8.442  0.3002  0.0844  0.1860
    2PHE    SC2  839   7.334  13.874   8.615 -0.2098 -0.0403  0.2063
    2PHE    SC3  840   7.196  13.826   8.387 -0.5054  0.3109  0.3013
    1GLY     BB  841  10.661   0.681  16.356  0.0279 -0.0194 -0.2621
    2PHE     BB  842  10.658   0.594  16.600  0.4359 -0.0398 -0.0076
    2PHE    SC1  843  10.420   0.430  16.716  0.1023 -0.2392  0.0880
    2PHE    SC2  844  10.206   0.266  16.713  0.1296 -0.2844  0.3579
    2PHE    SC3  845  10.210   0.479  16.879  0.0043  0.1209 -0.1336
    1GLY     BB  846   5.868   2.216   8.464 -0.0150  0.0932  0.2238
    2PHE     BB  847   6.007   2.389   8.448 -0.2891 -0.1271 -0.2045
    2PHE    SC1  848   6.212   2.543   8.623 -0.0360 -0.1021 -0.0944
    2PHE    SC2  849   6.226   2.812   8.651  0.1331 -0.0629 -0.4858
    2PHE    SC3  850   6.407   2.653   8.774 -0.1663 -0.0318  0.0254
    1GLY     BB  851   6.347   3.925   4.563  0.0662 -0.0108 -0.0324
    2PHE     BB  852   6.370   4.163   4.291 -0.2660  0.1305 -0.3031
    2PHE    SC1  853   6.574   4.056   4.078  0.4442  0.1883  0.2095
    2PHE    SC2  854   6.779   3.901   3.995 -0.1027 -0.3309 -0.2643
    2PHE    SC3  855   6.690   4.102   3.838 -0.0219 -0.1660 -0.1022
    1GLY     BB  856   0.723   9.062  15.340 -0.0481  0.1323 -0.0555
    2PHE     BB  857   0.885   9.072  15.570  0.3272  0.1871  0.2927
    2PHE    SC1  858   0.837   9.200  15.832 -0.0606  0.3679 -0.1386
    2PHE    SC2  859   0.697   9.122  16.049  0.2855 -0.1716 -0.0911
    2PHE    SC3  860   0.697   9.381  15.975 -0.2295 -0.0563  0.2600
    1GLY     BB  861  15.862   7.731   7.420 -0.2627  0.3215 -0.1729
    2PHE     BB  862  16.023   7.606   7.656 -0.0217  0.3702  0.0679
    2PHE    SC1  863  16.187   7.349   7.537 -0.0165  0.0992  0.1002
    2PHE    SC2  864  16.380   7.163   7.574  0.1675  0.2949  0.1406
    2PHE    SC3  865  16.237   7.167   7.344  0.0425 -0.0018  0.2094
    1GLY     BB  866   6.560  16.347   7.581  0.1713  0.0459 -0.1667
    2PHE     BB  867   6.775  16.561   7.501  0.2931 -0.0003  0.1173
    2PHE    SC1  868   6.987  16.423   7.342  0.4138  0.1892  0.2293
    2PHE    SC2  869   7.085  16.308   7.118 -0.1149  0.1245  0.0179
    2PHE    SC3  870   7.246  16.460   7.273  0.2145  0.3494 -0.5176
    1GLY     BB  871  13.359  15.712  16.170 -0.1792  0.2866 -0.0466
    2PHE     BB  872  13.252  15.779  16.030  0.0817 -0.0240  0.0284
    2PHE    SC1  873  13.113  15.784  15.751  0.0661  0.4331  0.2347
    2PHE    SC2  874  13.212  15.884  15.521  0.0602  0.0690  0.0674
    2PHE    SC3  875  12.985  15.738  15.518  0.1851 -0.1352  0.2678
    1GLY     BB  876  15.755  13.013   5.411  0.3189 -0.0449 -0.0521
    2PHE     BB  877  15.598  13.218   5.360  0.0538 -0.0311 -0.1336
    2PHE    SC1  878  15.332  13.317   5.362 -0.0023 -0.0048 -0.3458
    2PHE    SC2  879  15.064  13.305   5.332 -0.0352  0.1472 -0.1350
    2PHE    SC3  880  15.170  13.417   5.553  0.2006 -0.2196 -0.0531
    1GLY     BB  881   2.084   4.388  11.362  0.1396 -0.4761 -0.5079
    2PHE     BB  882   2.001   4.508  11.071  0.0728 -0.2431 -0.1127
    2PHE    SC1  883   2.286   4.562  10.955 -0.0172  0.2222  0.0794
    2PHE    SC2  884   2.410   4.576  10.715 -0.2512  0.0541 -0.0562
    2PHE    SC3  885   2.543   4.643  10.941  0.2166 -0.4851 -0.1502
    1GLY     BB  886   7.159  14.790   3.852 -0.0196  0.0546  0.0661
    2PHE     BB  887   7.276  14.911   4.150  0.0153  0.2132 -0.0225
    2PHE    SC1  888   7.489  15.072   4.281 -0.0717  0.4401 -0.3165
    2PHE    SC2  889   7.594  15.308   4.359  0.0451  0.1933  0.3314
    2PHE    SC3  890   7.726  15.078   4.411 -0.1913 -0.0387 -0.0540
    1GLY     BB  891   8.127   6.331   6.386 -0.0558  0.1294  0.0677
    2PHE     BB  892   8.304   6.527   6.334  0.5008  0.1364  0.0312
    2PHE    SC1  893   8.370   6.601   6.006 -0.0350 -0.4259  0.1225
    2PHE    SC2  894   8.329   6.632   5.741  0.1329 -0.0902  0.1300
    2PHE    SC3  895   8.575   6.671   5.845  0.1277 -0.4758  0.3040
    1GLY     BB  896   9.159   1.185   1.791 -0.1993 -0.1052 -0.0810
    2PHE     BB  897   8.933   1.292   1.831 -0.0165 -0.0716 -0.2696
    2PHE    SC1  898   8.701   1.299   1.613  0.3757  0.1267  0.1060
    2PHE    SC2  899   8.568   1.152   1.429  0.0712 -0.0310  0.4398
    2PHE    SC3  900   8.587   1.420   1.400 -0.0922 -0.0378  0.2491
    1GLY     BB  901  16.370  10.243   6.047  0.5748 -0.1399 -0.0388
    2PHE     BB  902  16.425   9.832   6.075 -0.1015 -0.0467 -0.2284
    2PHE    SC1  903  16.276   9.651   5.918  0.3201  0.0122 -0.0399
    2PHE    SC2  904  16.016   9.632   5.846  0.1936 -0.0635  0.4063
    2PHE    SC3  905  16.203   9.485   5.718 -0.0084 -0.1498  0.2036
    1GLY     BB  906   5.313  11.095   0.995 -0.0702 -0.1491  0.0596
    2PHE     BB  907   5.170  11.315   0.869  0.0049 -0.0108 -0.0645
    2PHE    SC1  908   4.889  11.202   0.759 -0.1050  0.3341 -0.2554
    2PHE    SC2  909   4.704  11.006   0.767  0.0740  0.1690  0.0464
    2PHE    SC3  910   4.747  11.142   0.538 -0.1523 -0.0461 -0.1298
    1GLY     BB  911   8.366  10.633  14.190 -0.3764  0.1375 -0.0172
    2PHE     BB  912   8.228  10.502  14.017 -0.2129  0.1128 -0.0552
    2PHE    SC1  913   8.031  10.548  13.771 -0.0727  0.2956  0.1889
    2PHE    SC2  914   8.059  10.669  13.531  0.2074  0.1583  0.1479
    2PHE    SC3  915   7.856  10.496  13.573  0.1160  0.2364  0.0347
    1GLY     BB  916   2.959  15.966   8.995  0.2881  0.3404  0.1528
    2PHE     BB  917   3.147  15.959   8.892 -0.5105  0.1193  0.1203
    2PHE    SC1  918   3.441  15.959   8.990  0.0209 -0.0588 -0.1157
    2PHE    SC2  919   3.702  15.992   9.049 -0.0617  0.0466  0.2121
    2PHE    SC3  920   3.589  16.137   8.852  0.1619 -0.1205 -0.0466
    1GLY     BB  921   0.167   0.374   9.688  0.2725  0.0645 -0.2796
    2PHE     BB  922   0.132   0.701   9.761  0.0127  0.2459 -0.0063
    2PHE    SC1  923  -0.030   0.839   9.960  0.2979  0.1776  0.2383
    2PHE    SC2  924  -0.266   0.845  10.091  0.1070  0.0860 -0.0917
    2PHE    SC3  925  -0.088   1.045  10.125  0.0116  0.1245  0.2083
    1GLY     BB  926   4.897   4.638  12.743  0.0778  0.1161 -0.0543
    2PHE     BB  927   5.017   4.471  12.743  0.1074  0.0736  0.2227
    2PHE    SC1  928   5.157   4.293  12.523 -0.1679 -0.1945  0.0552
    2PHE    SC2  929   5.163   4.023  12.515 -0.0507 -0.1977  0.2149
    2PHE    SC3  930   5.372   4.165  12.420 -0.0746 -0.1655  0.2107
    1GLY     BB  931  11.982   1.331   2.352  0.0103 -0.0180  0.0242
    2PHE     BB  932  12.403   1.148   2.257  0.1926 -0.1277  0.0092
    2PHE    SC1  933  12.504   1.394   2.160  0.0059  0.0019 -0.0881
    2PHE    SC2  934  12.659   1.600   2.081  0.2762 -0.0484  0.2850
    2PHE    SC3  935  12.445   1.645   2.239 -0.2570  0.0502 -0.4152
    1GLY     BB  936   6.481   5.628  10.105 -0.3515 -0.4525 -0.0427
    2PHE     BB  937   6.471   5.624  10.302  0.0777 -0.0964 -0.0120
    2PHE    SC1  938   6.743   5.699  10.466  0.2185  0.1413  0.0129
    2PHE    SC2  939   6.892   5.874  10.606  0.5427 -0.1737  0.0762
    2PHE    SC3  940   7.009   5.659  10.491  0.1812 -0.2596 -0.1442
    1GLY     BB  941   9.975   6.952  11.819 -0.0965 -0.1235  0.2367
    2PHE     BB  942   9.672   7.076  12.044  0.2170  0.1572 -0.2077
    2PHE    SC1  943   9.873   7.226  12.250  0.2426 -0.2727 -0.2020
    2PHE    SC2  944   9.965   7.463  12.340 -0.2368 -0.0784 -0.1955
    2PHE    SC3  945   9.996   7.241  12.490 -0.1306  0.0523 -0.0198
    1GLY     BB  946   8.175   0.245  11.608 -0.1046 -0.0484 -0.1095
    2PHE     BB  947   8.314   0.392  11.899  0.0051 -0.1054 -0.0229
    2PHE    SC1  948   8.376   0.206  12.142  0.1374 -0.0226 -0.3395
    2PHE    SC2  949   8.435   0.102  12.384  0.4574  0.2026 -0.3155
    2PHE    SC3  950   8.386  -0.062  12.176  0.2236  0.0070 -0.1127
    1GLY     BB  951  14.823   5.090  16.283  0.0820 -0.0212 -0.1236
    2PHE     BB  952  14.885   5.369  16.357  0.1113  0.0839 -0.0585
    2PHE    SC1  953  14.680   5.516  16.456 -0.2686 -0.2333 -0.3966
    2PHE    SC2  954  14.568   5.705  16.613  0.1248 -0.3479  0.0464
    2PHE    SC3  955  14.583   5.742  16.346 -0.0383  0.1220  0.0935
    1GLY     BB  956   1.985   8.361   9.473  0.2744 -0.0284  0.0633
    2PHE     BB  957   2.186   8.635   9.731  0.0370  0.4227  0.0980
    2PHE    SC1  958   2.368   8.847   9.647 -0.0701  0.1233  0.0081
    2PHE    SC2  959   2.412   9.109   9.695  0.3134  0.0959 -0.1604
    2PHE    SC3  960   2.609   8.955   9.592  0.1976 -0.3345  0.2251
    1GLY     BB  961   2.513  10.218  12.266  0.3272 -0.0164  0.3014
    2PHE     BB  962   2.199  10.231  12.161  0.0063  0.1958 -0.2982
    2PHE    SC1  963   2.013  10.027  12.101  0.0354  0.1680  0.0958
    2PHE    SC2  964   1.929   9.777  12.044  0.1617  0.1205  0.1146
    2PHE    SC3  965   1.759   9.985  12.019  0.0696  0.0392  0.0527
    1GLY     BB  966  14.765   3.644  14.223  0.1012  0.0183  0.1179
    2PHE     BB  967  14.573   3.700  14.102 -0.2265 -0.0014  0.2404
    2PHE    SC1  968  14.496   3.521  13.839  0.2631 -0.2839  0.2284
    2PHE    SC2  969  14.518   3.392  13.603  0.1574  0.0433  0.0321
    2PHE    SC3  970  14.274   3.453  13.701  0.2008 -0.0900  0.2308
    1GLY     BB  971   7.723   4.778  15.699  0.2531 -0.2271 -0.2070
    2PHE     BB  972   8.041   4.629  15.766 -0.0643 -0.1333  0.0667
    2PHE    SC1  973   8.239   4.790  15.785 -0.2116  0.1304 -0.1606
    2PHE    SC2  974   8.457   4.927  15.704  0.0529 -0.3265 -0.2613
    2PHE    SC3  975   8.364   4.956  15.956  0.1531 -0.0381 -0.2541
    1GLY     BB  976   7.080   5.158   1.449 -0.2592 -0.1432 -0.1693
    2PHE     BB  977   7.042   5.416   1.565 -0.1658  0.0140  0.0190
    2PHE    SC1  978   6.930   5.455   1.841 -0.1852 -0.3301  0.1433
    2PHE    SC2  979   6.707   5.583   1.925  0.1277  0.2876  0.0881
    2PHE    SC3  980   6.912   5.542   2.096  0.0702 -0.0718  0.0781
    1GLY     BB  981   9.050  11.701   5.331  0.1241 -0.1875 -0.0374
    2PHE     BB  982   9.287  11.562   5.305  0.1463 -0.0444 -0.1371
    2PHE    SC1  983   9.285  11.288   5.289  0.6767 -0.1685  0.5553
    2PHE    SC2  984   9.240  11.022   5.292  0.0373 -0.0995 -0.1440
    2PHE    SC3  985   9.379  11.134   5.088 -0.0970  0.1470 -0.1048
    1GLY     BB  986  14.542  10.654  11.365 -0.0176 -0.1679  0.0014
    2PHE     BB  987  14.730  10.680  11.068 -0.1975  0.0600 -0.1121
    2PHE    SC1  988  14.695  10.861  10.828  0.0864 -0.0712  0.0158
    2PHE    SC2  989  14.498  11.044  10.801  0.0202 -0.0910  0.3248
    2PHE    SC3  990  14.536  10.857  10.610 -0.1311  0.0347  0.1688
    1GLY     BB  991  14.735  10.315   3.926 -0.0308  0.1595 -0.1667
    2PHE     BB  992  14.738  10.190   4.134  0.1590 -0.1559  0.1601
    2PHE    SC1  993  14.994  10.108   4.291 -0.0867 -0.1175 -0.0910
    2PHE    SC2  994  15.073   9.917   4.465  0.0613 -0.0849 -0.1212
    2PHE    SC3  995  15.248  10.105   4.382 -0.2055  0.3740  0.2996
    1GLY     BB  996  11.364   5.381   8.131  0.0832 -0.0328  0.1107
    2PHE     BB  997  11.304   5.165   8.190  0.1195  0.1735 -0.0378
    2PHE    SC1  998  11.163   4.962   7.990  0.2754  0.1160 -0.1650
    2PHE    SC2  999  10.928   4.905   7.871  0.2668 -0.1359 -0.0356
    2PHE    SC3 1000  11.157   4.800   7.775  0.3822  0.3892 -0.3793
    1GLY     BB 1001   5.027   3.123   8.409 -0.0151 -0.0139  0.2121
    2PHE     BB 1002   5.277   3.199   8.456  0.3145 -0.0643  0.1348
    2PHE    SC1 1003   5.556   3.242   8.327 -0.2159 -0.2089 -0.0428
    2PHE    SC2 1004   5.726   3.207   8.120 -0.0359 -0.0136  0.0679
    2PHE    SC3 1005   5.821   3.282   8.362 -0.3003  0.3170  0.0766
    1GLY     BB 1006  10.256   7.701   9.618 -0.1756  0.0991 -0.1509
    2PHE     BB 1007  10.180   7.850   9.420  0.0114 -0.1219  0.1652
    2PHE    SC1 1008  10.251   7.890   9.132 -0.0330 -0.0195 -0.1881
    2PHE    SC2 1009  10.468   8.013   9.029 -0.0902  0.0142 -0.2692
    2PHE    SC3 1010  10.229   8.034   8.905 -0.2339  0.3262  0.0410
    1GLY     BB 1011   8.272  12.554   4.044  0.4386 -0.1683 -0.1667
    2PHE     BB 1012   8.403  12.439   3.788  0.2933 -0.1139 -0.0598
    2PHE    SC1 1013   8.363  12.181   3.630  0.0002  0.0476  0.0917
    2PHE    SC2 1014   8.396  11.916   3.593  0.2409  0.1051 -0.1338
    2PHE    SC3 1015   8.302  12.069   3.392 -0.0882  0.1647  0.0584
    1GLY     BB 1016   6.871   3.063  14.737  0.0441  0.2296  0.0779
    2PHE     BB 1017   6.807   3.271  14.982 -0.1887  0.0306 -0.0536
    2PHE    SC1 1018   7.065   3.437  14.949 -0.1314 -0.1638  0.0667
    2PHE    SC2 1019   7.307   3.502  14.849 -0.4341  0.3527 -0.3832
    2PHE    SC3 1020   7.233   3.594  15.092 -0.2022  0.2266 -0.2613
    1GLY     BB 1021   0.354  12.822  11.426 -0.0509 -0.2719 -0.0724
    2PHE     BB 1022   0.652  12.873  11.405  0.0500 -0.0825  0.0241
    2PHE    SC1 1023   0.870  12.657  11.515 -0.1694 -0.3202 -0.0832
    2PHE    SC2 1024   1.027  12.600  11.727 -0.3907  0.0029  0.1780
    2PHE    SC3 1025   1.132  12.600  11.478 -0.0119  0.0716  0.3295
    1GLY     BB 1026   1.358   0.506  11.669 -0.3633 -0.4679 -0.0547
    2PHE     BB 1027   1.250   0.374  11.727  0.0832  0.4033  0.3007
    2PHE    SC1 1028   0.982   0.311  11.844  0.0074  0.1799  0.0261
    2PHE    SC2 1029   0.822   0.377  12.051 -0.1458  0.0387 -0.0449
    2PHE    SC3 1030   0.722   0.239  11.842  0.0158  0.1492 -0.1980
    1GLY     BB 1031   8.224   8.323  10.405 -0.0859 -0.3809  0.3348
    2PHE     BB 1032   8.454   8.235  10.393 -0.0069  0.0699  0.3168
    2PHE    SC1 1033   8.594   8.092  10.626 -0.8620 -0.0548  0.0347
    2PHE    SC2 1034   8.668   8.034  10.879 -0.3324  0.1553 -0.0593
    2PHE    SC3 1035   8.663   7.839  10.692 -0.2304  0.0940  0.0010
    1GLY     BB 1036   6.163   1.366   7.705  0.0558  0.1170  0.1723
    2PHE     BB 1037   5.922   1.145   7.695 -0.2262  0.1777 -0.2726
    2PHE    SC1 1038   5.649   1.226   7.805  0.4990  0.1544  0.3075
    2PHE    SC2 1039   5.466   1.223   8.003  0.2280 -0.0948  0.0636
    2PHE    SC3 1040   5.453   1.412   7.811  0.1757 -0.1603  0.0022
    1GLY     BB 1041  14.295   6.353   7.117 -0.0127  0.1759 -0.2394
    2PHE     BB 1042  14.199   6.474   7.121  0.4415 -0.0116  0.3150
    2PHE    SC1 1043  14.172   6.683   6.863  0.3707  0.2962 -0.0331
    2PHE    SC2 1044  14.107   6.718   6.603  0.0266 -0.0197  0.0019
    2PHE    SC3 1045  14.146   6.932   6.763 -0.1402  0.1818 -0.2192
    1GLY     BB 1046   8.845   8.547   1.626  0.0213  0.0121 -0.1325
    2PHE     BB 1047   8.755   8.378   1.528  0.1730  0.4734 -0.0020
    2PHE    SC1 1048   8.800   8.212   1.296  0.4992  0.1186  0.0598
    2PHE    SC2 1049   8.789   8.194   1.027 -0.3450  0.1312  0.0666
    2PHE    SC3 1050   8.760   7.972   1.178  0.1643  0.1182  0.1626
    1GLY     BB 1051  16.390   7.635  12.841 -0.3615 -0.3220 -0.2561
    2PHE     BB 1052  16.051   7.722  12.593  0.1022  0.2100  0.1792
    2PHE    SC1 1053  16.119   7.840  12.340  0.0371 -0.0770 -0.0092
    2PHE    SC2 1054  16.268   7.816  12.116  0.0986  0.1226  0.0081
    2PHE    SC3 1055  16.265   8.050  12.252 -0.0064  0.0303  0.1680
    1GLY     BB 1056  16.019   6.362   5.234 -0.1602 -0.0346  0.0604
    2PHE     BB 1057  16.140   6.199   5.029  0.0826 -0.1219  0.4595
    2PHE    SC1 1058  15.923   6.105   4.812  0.0102  0.0660  0.1875
    2PHE    SC2 1059  15.936   5.894   4.644  0.1738  0.3661 -0.1923
    2PHE    SC3 1060  15.760   6.093   4.597 -0.3184  0.1103  0.4270
    1GLY     BB 1061   1.897  13.874   8.194  0.0009  0.2101 -0.0583
    2PHE     BB 1062   1.761  13.806   8.310 -0.0335  0.4282  0.1633
    2PHE    SC1 1063   1.614  14.014   8.504 -0.0188 -0.2099  0.1186
    2PHE    SC2 1064   1.723  14.244   8.594 -0.2132  0.0328 -0.2456
    2PHE    SC3 1065   1.455  14.214   8.590 -0.2107  0.0097 -0.6732
    1GLY     BB 1066   1.537   5.352   8.727 -0.1074  0.0978  0.0951
    2PHE     BB 1067   1.360   5.491   8.825 -0.2632  0.1189  0.0240
    2PHE    SC1 1068   1.333   5.705   9.015 -0.0633  0.0684  0.1207
    2PHE    SC2 1069   1.280   5.839   9.243 -0.1944 -0.0355  0.1526
    2PHE    SC3 1070   1.468   5.931   9.072  0.0447 -0.0609  0.3961
    1GLY     BB 1071   9.977  11.823   8.789  0.1032 -0.0228 -0.3722
    2PHE     BB 1072  10.020  11.568   8.785 -0.2415  0.2453  0.2235
    2PHE    SC1 1073  10.241  11.358   8.840 -0.1684 -0.2263  0.0989
    2PHE    SC2 1074  10.405  11.235   9.015  0.0103 -0.0283  0.0753
    2PHE    SC3 1075  10.467  11.238   8.752 -0.1471 -0.1404  0.0352
    1GLY     BB 1076   3.167  16.127   6.836  0.1606 -0.0655 -0.0307
    2PHE     BB 1077   3.124  16.081   6.484 -0.0432 -0.1411 -0.0205
    2PHE    SC1 1078   3.367  15.915   6.431  0.0200  0.0365 -0.0444
    2PHE    SC2 1079   3.627  15.955   6.494  0.0176  0.0181 -0.0225
    2PHE    SC3 1080   3.558  15.760   6.320  0.0330  0.1360 -0.1634
    1GLY     BB 1081  14.224  14.321   5.844 -0.0634 -0.1811 -0.1892
    2PHE     BB 1082  14.509  14.393   5.653  0.3053 -0.0945  0.2976
    2PHE    SC1 1083  14.578  14.175   5.437 -0.2322 -0.2748  0.1281
    2PHE    SC2 1084  14.733  13.997   5.304 -0.1605 -0.2035  0.1151
    2PHE    SC3 1085  14.494  14.071   5.202  0.1566  0.3164 -0.3025
    1GLY     BB 1086  13.905  14.636   0.223  0.0545  0.1497  0.0068
    2PHE     BB 1087  14.034  14.683   0.368  0.2791  0.0368  0.0678
    2PHE    SC1 1088  14.237  14.527   0.535 -0.3106 -0.1979 -0.1106
    2PHE    SC2 1089  14.272  14.265   0.592  0.2262 -0.1946 -0.3592
    2PHE    SC3 1090  14.452  14.447   0.678 -0.3522  0.1686  0.1712
    1GLY     BB 1091  16.122  10.282   1.053 -0.1007  0.0522  0.2480
    2PHE     BB 1092  15.847  10.098   1.019  0.1218 -0.3027  0.3249
    2PHE    SC1 1093  15.875   9.809   1.061 -0.1568 -0.1448  0.0894
    2PHE    SC2 1094  15.860   9.618   0.870  0.3482 -0.0432 -0.0658
    2PHE    SC3 1095  15.840   9.550   1.130 -0.0475 -0.2234 -0.1368
    1GLY     BB 1096   8.590  11.544   3.916  0.0726  0.1176  0.0852
    2PHE     BB 1097   8.607  11.673   4.192 -0.1648 -0.0551 -0.0393
    2PHE    SC1 1098   8.664  11.517   4.456 -0.2779  0.0286 -0.0269
    2PHE    SC2 1099   8.618  11.273   4.561 -0.1612  0.1637  0.3540
    2PHE    SC3 1100   8.575  11.494   4.710  0.1398  0.3595  0.1615
    1GLY     BB 1101   4.099   7.124  15.071 -0.0051 -0.0261  0.1960
    2PHE     BB 1102   3.651   7.073  15.046  0.5685 -0.3729  0.2187
    2PHE    SC1 1103   3.566   6.860  15.189  0.2672  0.0711  0.2866
    2PHE    SC2 1104   3.648   6.605  15.222  0.0699 -0.0771 -0.2586
    2PHE    SC3 1105   3.512   6.729  15.419 -0.1355 -0.5147 -0.1118
    1GLY     BB 1106   3.346  16.205  10.098 -0.0390 -0.1920 -0.0050
    2PHE     BB 1107   3.320  16.296   9.875 -0.1017 -0.0040  0.2149
    2PHE    SC1 1108   3.584  16.271   9.662  0.1500 -0.0286  0.3733
    2PHE    SC2 1109   3.690  16.135   9.454 -0.0629 -0.1413  0.3352
    2PHE    SC3 1110   3.833  16.330   9.576  0.0066  0.0373 -0.0183
    1GLY     BB 1111   0.194  12.477   8.086  0.2311  0.1087  0.3393
    2PHE     BB 1112   0.230  12.341   7.962  0.1194 -0.0060 -0.0307
    2PHE    SC1 1113   0.135  12.252   7.708  0.0903  0.1830 -0.0249
    2PHE    SC2 1114   0.077  12.059   7.529 -0.1869  0.1110  0.1351
    2PHE    SC3 1115  -0.121  12.171   7.674  0.0364  0.1329  0.4323
    1GLY     BB 1116   1.925   1.757   2.760 -0.1993 -0.0361 -0.0283
    2PHE     BB 1117   1.958   1.646   3.008  0.3610 -0.1210  0.1270
    2PHE    SC1 1118   2.105   1.722   3.248 -0.1989  0.2387  0.0631
    2PHE    SC2 1119   2.023   1.750   3.504 -0.1335  0.1778  0.0911
    2PHE    SC3 1120   2.277   1.674   3.451 -0.3074 -0.4015  0.0231
    1GLY     BB 1121   1.900   5.575  15.444  0.1480 -0.1869 -0.0207
    2PHE     BB 1122   2.084   5.503  15.498  0.0140  0.1325 -0.0742
    2PHE    SC1 1123   2.296   5.332  15.351  0.0150 -0.2689 -0.0826
    2PHE    SC2 1124   2.490   5.298  15.167  0.1300  0.0607 -0.0278
    2PHE    SC3 1125   2.499   5.160  15.398  0.3664  0.1577  0.0240
    1GLY     BB 1126  11.615   8.574   4.314  0.3579 -0.0273 -0.0082
    2PHE     BB 1127  11.482   8.424   4.169  0.1144  0.1077  0.2256
    2PHE    SC1 1128  11.183   8.374   4.252 -0.0469  0.5039  0.3099
    2PHE    SC2 1129  10.935   8.479   4.226 -0.2510  0.0325  0.2488
    2PHE    SC3 1130  10.966   8.226   4.313  0.2278  0.1563  0.4737
    1GLY     BB 1131  15.640   9.314  16.193 -0.0036 -0.0991 -0.0637
    2PHE     BB 1132  15.704   9.337  16.455 -0.2620 -0.0465 -0.0829
    2PHE    SC1 1133  15.516   9.415  16.679 -0.3823 -0.3350 -0.0083
    2PHE    SC2 1134  15.527   9.538  16.919 -0.2133 -0.0531 -0.1545
    2PHE    SC3 1135  15.298   9.418  16.839 -0.2921 -0.0890  0.1145
    1GLY     BB 1136   2.814   3.301   3.129  0.2078 -0.1340  0.3610
    2PHE     BB 1137   3.002   3.185   3.323  0.1584  0.4726 -0.3781
    2PHE    SC1 1138   2.989   2.919   3.457  0.1811  0.1187  0.0031
    2PHE    SC2 1139   3.101   2.705   3.578  0.0692  0.0423 -0.0269
    2PHE    SC3 1140   3.001   2.682   3.328  0.3598  0.2160 -0.1654
    1GLY     BB 1141   8.139  12.614   2.568 -0.2111 -0.0365  0.0206
    2PHE     BB 1142   8.190  12.505   2.773 -0.0105  0.0821 -0.2252
    2PHE    SC1 1143   8.065  12.499   3.061 -0.1784 -0.1577 -0.1157
    2PHE    SC2 1144   8.162  12.514   3.312  0.0676  0.1895 -0.2236
    2PHE    SC3 1145   7.934  12.377   3.263  0.1938 -0.1672  0.1290
    1GLY     BB 1146   4.031  15.081   5.073 -0.1210  0.0745  0.1238
    2PHE     BB 1147   4.201  15.258   5.056  0.0330  0.1601 -0.0237
    2PHE    SC1 1148   4.327  15.416   5.266  0.0202  0.2484  0.1419
    2PHE    SC2 1149   4.555  15.500   5.384  0.1894  0.0200 -0.0160
    2PHE    SC3 1150   4.317  15.555   5.498  0.3204  0.2644  0.1489
    1GLY     BB 1151   2.860  14.192   8.385  0.1033  0.2871  0.1395
    2PHE     BB 1152   2.774  14.225   8.591 -0.1097 -0.0782 -0.2044
    2PHE    SC1 1153   2.422  14.241   8.624 -0.1738 -0.1400 -0.1274
    2PHE    SC2 1154   2.205  14.399   8.591 -0.0747  0.0040 -0.1015
    2PHE    SC3 1155   2.183  14.131   8.564 -0.2985 -0.0016  0.1002
    1GLY     BB 1156   6.079   8.104  14.237  0.1005 -0.1704 -0.0707
    2PHE     BB 1157   5.964   8.282  14.323  0.1173 -0.0705 -0.1907
    2PHE    SC1 1158   5.689   8.443  14.235 -0.0007  0.0036  0.1159
    2PHE    SC2 1159   5.423   8.491  14.236 -0.0163 -0.0655 -0.1455
    2PHE    SC3 1160   5.571   8.550  14.018  0.0753 -0.5887 -0.2394
    1GLY     BB 1161   6.084   6.929   0.747 -0.1865  0.1067  0.2605
    2PHE     BB 1162   6.237   6.938   0.446 -0.0011  0.0517 -0.1999
    2PHE    SC1 1163   6.228   7.048   0.166  0.3679  0.1379  0.0962
    2PHE    SC2 1164   6.366   7.149  -0.043  0.1646  0.0191 -0.1002
    2PHE    SC3 1165   6.100   7.112  -0.063  0.1836 -0.2430  0.0863
    1GLY     BB 1166   9.679  15.745   4.689  0.1323 -0.4189  0.1377
    2PHE     BB 1167   9.788  15.912   4.597  0.0592 -0.1663  0.0406
    2PHE    SC1 1168   9.867  15.999   4.328 -0.2466  0.1249  0.2757
    2PHE    SC2 1169   9.837  15.944   4.066 -0.2210 -0.0898  0.3159
    2PHE    SC3 1170   9.786  16.192   4.158  0.1022  0.0834  0.0525
    1GLY     BB 1171   7.072   5.165  14.107  0.0597  0.1055  0.1199
    2PHE     BB 1172   6.926   4.933  14.136  0.3963  0.1691 -0.0547
    2PHE    SC1 1173   6.921   4.717  13.920 -0.1466  0.0790 -0.1709
    2PHE    SC2 1174   6.959   4.672  13.656  0.3111  0.1335 -0.1218
    2PHE    SC3 1175   6.925   4.464  13.825 -0.1573  0.1043 -0.2394
    1GLY     BB 1176   4.991   3.453   2.118 -0.1538  0.1485  0.0375
    2PHE     BB 1177   5.018   3.347   1.896 -0.0495  0.2075  0.1981
    2PHE    SC1 1178   5.047   3.021   1.906 -0.4297 -0.3164  0.1701
    2PHE    SC2 1179   4.961   2.796   2.029 -0.3098 -0.2548  0.3712
    2PHE    SC3 1180   5.197   2.796   1.897 -0.5397 -0.3833 -0.0575
    1GLY     BB 1181   9.872  10.395   2.762 -0.0141 -0.1461  0.0532
    2PHE     BB 1182  10.169  10.457   2.904  0.0326 -0.1027 -0.0398
    2PHE    SC1 1183  10.395  10.329   2.744  0.0333  0.0575  0.2582
    2PHE    SC2 1184  10.583  10.135   2.760  0.0759  0.0658 -0.0597
    2PHE    SC3 1185  10.654  10.387   2.692 -0.0068  0.1499  0.1560
    1GLY     BB 1186   8.100   1.843  13.564 -0.0994 -0.0941  0.3903
    2PHE     BB 1187   8.227   1.886  13.920  0.0197  0.0191 -0.4853
    2PHE    SC1 1188   8.340   1.589  13.890  0.0970  0.1395 -0.2552
    2PHE    SC2 1189   8.514   1.385  13.927 -0.0731  0.0341 -0.0013
    2PHE    SC3 1190   8.337   1.376  13.724  0.2160  0.1458 -0.2664
    1GLY     BB 1191   5.822   7.441  13.308 -0.0103 -0.1678 -0.3236
    2PHE     BB 1192   5.608   7.550  13.142 -0.2936  0.2484 -0.2072
    2PHE    SC1 1193   5.653   7.401  12.835  0.1490 -0.4638  0.0857
    2PHE    SC2 1194   5.846   7.467  12.658 -0.2658  0.1478 -0.1732
    2PHE    SC3 1195   5.697   7.245  12.620  0.0654 -0.0711 -0.2288
    1GLY     BB 1196   1.462   8.320  13.325 -0.3293 -0.0431 -0.0067
    2PHE     BB 1197   1.515   8.583  13.468  0.1829  0.0638 -0.0311
    2PHE    SC1 1198   1.413   8.847  13.330  0.1703  0.2403 -0.0680
    2PHE    SC2 1199   1.454   9.105  13.263 -0.4388  0.3573 -0.0446
    2PHE    SC3 1200   1.228   8.980  13.185 -0.1655 -0.1701 -0.0348
    1GLY     BB 1201   8.381   4.641   5.590  0.2049  0.2185 -0.3208
    2PHE     BB 1202   8.079   4.436   5.679 -0.3371  0.0802  0.0082
    2PHE    SC1 1203   7.835   4.353   5.806 -0.1035  0.0504 -0.0801
    2PHE    SC2 1204   7.582   4.303   5.726 -0.0420 -0.1405 -0.1619
    2PHE    SC3 1205   7.685   4.172   5.939  0.0498 -0.2046 -0.2450
    1GLY     BB 1206   9.889   9.900   4.164  0.3679 -0.0081 -0.0906
    2PHE     BB 1207   9.775   9.858   3.981  0.3010  0.1553  0.1656
    2PHE    SC1 1208   9.865   9.938   3.681  0.1037 -0.0262 -0.0243
    2PHE    SC2 1209  10.029   9.914   3.467  0.1465  0.0801 -0.0041
    2PHE    SC3 1210   9.792  10.041   3.442  0.0484 -0.1067 -0.0426
    1GLY     BB 1211  14.349   2.629  13.828  0.0043 -0.2594 -0.0323
    2PHE     BB 1212  14.530   2.892  13.695  0.1327  0.0814  0.1992
    2PHE    SC1 1213  14.407   2.990  13.433 -0.3496 -0.1308 -0.3071
    2PHE    SC2 1214  14.268   3.181  13.304 -0.0394  0.0799 -0.3396
    2PHE    SC3 1215  14.387   2.983  13.164  0.0507  0.1430 -0.3535
    1GLY     BB 1216  13.258   0.748   4.916 -0.1709  0.0198 -0.1178
    2PHE     BB 1217  13.347   0.789   4.561  0.1734  0.0129  0.1304
    2PHE    SC1 1218  13.209   1.036   4.426  0.1825  0.0164 -0.1628
    2PHE    SC2 1219  13.262   1.280   4.322 -0.2758  0.1471 -0.1140
    2PHE    SC3 1220  13.044   1.144   4.241  0.1099 -0.3754 -0.3373
    1GLY     BB 1221  10.738   7.366   6.702 -0.0563 -0.0692 -0.1265
    2PHE     BB 1222  10.534   7.414   6.578 -0.3887  0.3071 -0.0676
    2PHE    SC1 1223  10.332   7.625   6.620  0.0873  0.2532  0.2668
    2PHE    SC2 1224  10.261   7.856   6.498 -0.4868  0.0785  0.2390
    2PHE    SC3 1225  10.315   7.854   6.762 -0.2820  0.2736  0.2013
    1GLY     BB 1226  10.011  13.580   3.728  0.0119  0.3653  0.0434
    2PHE     BB 1227  10.014  13.830   3.738 -0.0028  0.2336 -0.0183
    2PHE    SC1 1228   9.978  14.009   3.967 -0.2814  0.2591  0.1689
    2PHE    SC2 1229   9.884  13.986   4.219 -0.2382  0.1608  0.1762
    2PHE    SC3 1230  10.060  14.182   4.159 -0.1078  0.0735  0.2660
    1GLY     BB 1231   2.105  13.981   9.406  0.0604  0.3275  0.1480
    2PHE     BB 1232   1.883  14.238   9.458 -0.2204 -0.0426  0.1093
    2PHE    SC1 1233   1.670  14.107   9.298 -0.0090  0.0625  0.3547
    2PHE    SC2 1234   1.537  13.872   9.280  0.3355 -0.1427  0.3968
    2PHE    SC3 1235   1.492  14.067   9.099  0.1242 -0.2813  0.2963
    1GLY     BB 1236   0.859   2.686  12.932 -0.0882  0.1139 -0.1578
    2PHE     BB 1237   0.710   2.447  12.853 -0.2981  0.0831  0.1781
    2PHE    SC1 1238   0.446   2.524  12.700 -0.1126  0.2778 -0.3082
    2PHE    SC2 1239   0.203   2.622  12.765 -0.2307 -0.1079 -0.1341
    2PHE    SC3 1240   0.225   2.429  12.578 -0.1072 -0.3404  0.1134
    1GLY     BB 1241   5.524  13.667  14.278 -0.0680 -0.2447  0.3205
    2PHE     BB 1242   5.433  13.799  14.423  0.0190  0.1944  0.2406
    2PHE    SC1 1243   5.564  13.742  14.728  0.1791  0.0487  0.0257
    2PHE    SC2 1244   5.642  13.740  14.987  0.2845 -0.0027 -0.0057
    2PHE    SC3 1245   5.653  13.514  14.841  0.3084  0.0459 -0.0800
    1GLY     BB 1246   7.390  10.993   9.543 -0.1277 -0.2481 -0.0376
    2PHE     BB 1247   7.461  11.377   9.559 -0.0520  0.0893  0.2662
    2PHE    SC1 1248   7.757  11.407   9.447 -0.1159  0.2401 -0.3806
    2PHE    SC2 1249   8.020  11.348   9.428 -0.1430 -0.1122  0.1221
    2PHE    SC3 1250   7.926  11.579   9.326  0.3673  0.0473 -0.0200
    1GLY     BB 1251  13.190  14.332  11.746  0.2431  0.1026 -0.1997
    2PHE     BB 1252  13.424  14.357  11.816 -0.1256 -0.0133  0.2172
    2PHE    SC1 1253  13.582  14.239  12.052 -0.1722  0.2623 -0.0876
    2PHE    SC2 1254  13.777  14.062  12.109 -0.3069  0.0635 -0.2286
    2PHE    SC3 1255  13.783  14.309  12.218 -0.3886 -0.1901  0.3959
    1GLY     BB 1256  14.767  13.982   0.387 -0.0837  0.2089  0.0417
    2PHE     BB 1257  14.739  14.034   0.543  0.0661  0.0309 -0.1173
    2PHE    SC1 1258  14.724  14.152   0.845 -0.0974  0.1440 -0.0603
    2PHE    SC2 1259  14.635  14.162   1.100  0.0629 -0.3800  0.0271
    2PHE    SC3 1260  14.893  14.101   1.049  0.0493 -0.2136 -0.2631
    1GLY     BB 1261   0.187   1.473  15.264  0.0849 -0.0220  0.2265
    2PHE     BB 1262   0.360   1.342  15.408 -0.1654 -0.1484  0.2010
    2PHE    SC1 1263   0.510   1.108  15.431 -0.2569 -0.0618 -0.1793
    2PHE    SC2 1264   0.724   0.994  15.551 -0.3128  0.0212  0.0021
    2PHE    SC3 1265   0.605   0.871  15.342  0.1227  0.1370 -0.3273
    1GLY     BB 1266   9.260  12.605   7.661 -0.0612  0.1218  0.0498
    2PHE     BB 1267   9.155  12.773   7.485 -0.0146  0.0688 -0.0670
    2PHE    SC1 1268   8.948  12.960   7.606  0.1333  0.1330 -0.0965
    2PHE    SC2 1269   8.689  13.035   7.627  0.0906  0.0288 -0.2298
    2PHE    SC3 1270   8.883  13.223   7.610  0.0200  0.1074 -0.1779
    1GLY     BB 1271  13.777   5.379   6.546  0.1031  0.2750 -0.0934
    2PHE     BB 1272  13.826   5.630   6.577 -0.2465 -0.1010  0.1065
    2PHE    SC1 1273  13.774   5.834   6.379 -0.3240 -0.2474  0.1651
    2PHE    SC2 1274  13.610   6.000   6.243 -0.0743 -0.1488 -0.0236
    2PHE    SC3 1275  13.803   5.864   6.112 -0.0819 -0.3585  0.1765
    1GLY     BB 1276  14.123   9.360  14.698  0.0929  0.2645 -0.2689
    2PHE     BB 1277  14.010   9.110  14.560 -0.3530 -0.1027 -0.1720
    2PHE    SC1 1278  14.204   8.896  14.673 -0.2552 -0.1786  0.3549
    2PHE    SC2 1279  14.442   8.773  14.644 -0.3116 -0.1856 -0.1740
    2PHE    SC3 1280  14.268   8.687  14.832  0.1806 -0.0326  0.3837
    1GLY     BB 1281   1.479  12.513   9.358 -0.1486  0.1312 -0.0822
    2PHE     BB 1282   1.468  12.580   9.172 -0.1648 -0.3095  0.0867
    2PHE    SC1 1283   1.424  12.490   8.854  0.2899 -0.0341 -0.1129
    2PHE    SC2 1284   1.425  12.408   8.597  0.0535  0.3387 -0.2411
    2PHE    SC3 1285   1.195  12.406   8.739  0.2057  0.0176  0.0136
    1GLY     BB 1286  15.993   2.540  14.626 -0.1487 -0.2215 -0.1323
    2PHE     BB 1287  15.814   2.454  14.609  0.0133  0.1428 -0.1297
    2PHE    SC1 1288  15.679   2.439  14.896  0.1325 -0.0224 -0.2638
    2PHE    SC2 1289  15.556   2.257  15.053  0.0677 -0.0996 -0.4021
    2PHE    SC3 1290  15.421   2.474  14.965  0.2279  0.1790  0.0075
    1GLY     BB 1291  14.820   7.723   1.851  0.0212 -0.0744 -0.2679
    2PHE     BB 1292  14.830   7.562   1.782 -0.0737 -0.0505 -0.1333
    2PHE    SC1 1293  14.720   7.250   1.777  0.2697  0.0150 -0.1129
    2PHE    SC2 1294  14.842   7.015   1.729  0.2590 -0.0381  0.1096
    2PHE    SC3 1295  14.599   7.019   1.846  0.2650  0.0842  0.1187
    1GLY     BB 1296   2.739  12.126   9.552 -0.1942 -0.1352 -0.0395
    2PHE     BB 1297   2.665  12.282   9.684  0.0409  0.1885  0.1264
    2PHE    SC1 1298   2.629  12.515   9.882 -0.1489 -0.1732  0.1652
    2PHE    SC2 1299   2.565  12.593  10.133 -0.1789  0.3305  0.0113
    2PHE    SC3 1300   2.808  12.654  10.030 -0.0960 -0.0365 -0.0238
    1GLY     BB 1301   0.844   2.878  10.751 -0.0096 -0.3602  0.2234
    2PHE     BB 1302   0.938   3.097  10.656 -0.0046 -0.1408 -0.0417
    2PHE    SC1 1303   1.164   3.034  10.423 -0.3390 -0.2558 -0.4895
    2PHE    SC2 1304   1.375   2.894  10.329  0.0228 -0.1846  0.1530
    2PHE    SC3 1305   1.274   3.100  10.185  0.4500 -0.1592 -0.1312
    1GLY     BB 1306  10.340  15.239   4.039  0.0652  0.0778  0.2167
    2PHE     BB 1307  10.631  15.370   3.985 -0.0277 -0.0601  0.0507
    2PHE    SC1 1308  10.690  15.641   3.867 -0.1467  0.0635  0.0607
    2PHE    SC2 1309  10.617  15.888   3.947 -0.0932  0.1850 -0.2490
    2PHE    SC3 1310  10.779  15.858   3.733 -0.1089 -0.1207 -0.2227
    1GLY     BB 1311  14.734   6.122   9.260 -0.2458  0.3351  0.2297
    2PHE     BB 1312  14.748   6.011   9.024 -0.1156 -0.0907  0.3365
    2PHE    SC1 1313  14.589   5.809   8.872  0.0078  0.2127 -0.0218
    2PHE    SC2 1314  14.369   5.749   8.727 -0.1365  0.4018  0.1144
    2PHE    SC3 1315  14.413   5.627   8.964  0.1851 -0.0314 -0.1544
    1GLY     BB 1316  11.671   0.466   2.698  0.2352 -0.1260 -0.2519
    2PHE     BB 1317  11.278   0.509   2.668  0.4016  0.1833 -0.2346
    2PHE    SC1 1318  11.081   0.717   2.605  0.2148  0.0230 -0.4650
    2PHE    SC2 1319  10.848   0.841   2.551  0.1005 -0.0051 -0.0672
    2PHE    SC3 1320  11.058   0.983   2.643  0.0905 -0.0478  0.0224
    1GLY     BB 1321   7.312   4.479   6.847  0.1065  0.1971 -0.3318
    2PHE     BB 1322   7.397   4.455   6.478 -0.1691  0.2396  0.0115
    2PHE    SC1 1323   7.158   4.638   6.440 -0.3051 -0.0667  0.2255
    2PHE    SC2 1324   6.920   4.684   6.321 -0.1860  0.2740  0.1075
    2PHE    SC3 1325   7.069   4.891   6.410  0.0087  0.0571  0.2993
    1GLY     BB 1326  16.281  14.514   2.783  0.2776  0.1125 -0.5149
    2PHE     BB 1327  16.385  14.794   2.809  0.0660  0.0558  0.1258
    2PHE    SC1 1328  16.668  14.820   2.659  0.5311 -0.1125  0.1849
    2PHE    SC2 1329  16.909  14.927   2.601  0.3973 -0.0231 -0.2446
    2PHE    SC3 1330  16.743  14.852   2.401  0.0235  0.0151  0.0405
    1GLY     BB 1331  13.022   8.965  10.878  0.0124  0.3128  0.1976
    2PHE     BB 1332  13.337   8.913  10.858  0.0260  0.1384  0.1620
    2PHE    SC1 1333  13.390   8.701  10.633 -0.1014  0.2567 -0.1974
    2PHE    SC2 1334  13.336   8.606  10.386  0.0536  0.2069 -0.2132
    2PHE    SC3 1335  13.460   8.448  10.567 -0.0389  0.2509 -0.1106
    1GLY     BB 1336  14.000  15.858   6.839  0.0908  0.1675  0.0034
    2PHE     BB 1337  14.056  15.754   6.713  0.0419  0.1942 -0.1675
    2PHE    SC1 1338  14.259  15.589   6.564  0.2182 -0.0487 -0.0165
    2PHE    SC2 1339  14.460  15.626   6.388  0.1720 -0.1020 -0.0810
    2PHE    SC3 1340  14.446  15.398   6.531  0.1823 -0.0793 -0.0437
    1GLY     BB 1341   6.421  12.943   5.399  0.3423 -0.0138 -0.0111
    2PHE     BB 1342   6.432  13.165   5.562  0.0396 -0.1941  0.1352
    2PHE    SC1 1343   6.259  13.404   5.521 -0.1163  0.1574  0.0618
    2PHE    SC2 1344   6.219  13.607   5.347  0.0653  0.0854 -0.0682
    2PHE    SC3 1345   6.011  13.505   5.486 -0.0399  0.3101 -0.0553
    1GLY     BB 1346  15.301  14.200   4.753  0.1737  0.1572 -0.0485
    2PHE     BB 1347  15.086  14.196   4.907 -0.0599  0.1648 -0.3770
    2PHE    SC1 1348  14.985  13.903   4.914  0.1440 -0.0877 -0.0886
    2PHE    SC2 1349  14.825  13.719   4.798  0.1183  0.0135 -0.2165
    2PHE    SC3 1350  14.919  13.678   5.048 -0.1118 -0.0454 -0.1368
    1GLY     BB 1351   4.529   5.696  10.502  0.2398 -0.0147  0.1212
    2PHE     BB 1352   4.392   5.761  10.615  0.0715 -0.4307  0.0400
    2PHE    SC1 1353   4.241   6.018  10.664  0.0040 -0.0429  0.0909
    2PHE    SC2 1354   4.112   6.126  10.875  0.1818  0.2579  0.0507
    2PHE    SC3 1355   4.209   6.285  10.680  0.1314 -0.0068 -0.1975
    1GLY     BB 1356   3.149  14.974   9.288 -0.1018 -0.3240  0.2813
    2PHE     BB 1357   3.073  14.842   9.213  0.0655 -0.0171  0.0212
    2PHE    SC1 1358   2.896  14.574   9.181  0.0615  0.1140  0.0781
    2PHE    SC2 1359   2.730  14.384   9.085  0.2742  0.0769 -0.2283
    2PHE    SC3 1360   2.875  14.337   9.308 -0.2671  0.1849  0.1647
    1GLY     BB 1361   4.791   4.296   1.932 -0.1636 -0.0174 -0.1603
    2PHE     BB 1362   4.455   4.221   1.913  0.0133  0.0557 -0.2711
    2PHE    SC1 1363   4.311   4.441   2.040  0.0206 -0.0387  0.0306
    2PHE    SC2 1364   4.242   4.699   2.080 -0.1239 -0.0495 -0.1383
    2PHE    SC3 1365   4.318   4.546   2.289 -0.0193  0.1335 -0.0394
    1GLY     BB 1366   1.290   9.711   8.898 -0.1449 -0.1571 -0.1070
    2PHE     BB 1367   1.252   9.492   9.187 -0.0044  0.0978  0.0777
    2PHE    SC1 1368   1.515   9.325   9.180  0.0034  0.0996  0.2690
    2PHE    SC2 1369   1.737   9.255   9.043 -0.1586  0.0226  0.0395
    2PHE    SC3 1370   1.707   9.178   9.300 -0.0321 -0.1795 -0.0044
    1GLY     BB 1371   8.159   5.721   7.352  0.0267  0.0398  0.0996
    2PHE     BB 1372   8.174   5.518   7.293  0.1223  0.1980  0.1124
    2PHE    SC1 1373   8.381   5.443   7.055 -0.2696 -0.0004  0.2393
    2PHE    SC2 1374   8.548   5.494   6.848 -0.5105  0.1717  0.0820
    2PHE    SC3 1375   8.541   5.248   6.959 -0.3438  0.0906 -0.0822
    1GLY     BB 1376   2.048   5.683  12.476  0.1322 -0.1263 -0.3693
    2PHE     BB 1377   2.165   5.556  12.543  0.1824  0.0037 -0.1623
    2PHE    SC1 1378   2.456   5.483  12.649 -0.3939  0.3762  0.2493
    2PHE    SC2 1379   2.666   5.612  12.539 -0.3786  0.2699  0.1520
    2PHE    SC3 1380   2.697   5.476  12.770 -0.1596 -0.3099 -0.1967
    1GLY     BB 1381  15.148   2.582  13.036  0.3274 -0.0369 -0.3392
    2PHE     BB 1382  15.213   2.737  13.006 -0.2909  0.1644 -0.1243
    2PHE    SC1 1383  15.419   2.916  12.874 -0.0299 -0.0164 -0.0040
    2PHE    SC2 1384  15.610   3.104  12.839  0.1437 -0.1345  0.2779
    2PHE    SC3 1385  15.516   2.966  12.627  0.1588  0.1285  0.0966
    1GLY     BB 1386   0.524  13.040   7.359 -0.0165  0.3365 -0.0776
    2PHE     BB 1387   0.472  13.410   7.395 -0.0347 -0.2695  0.2385
    2PHE    SC1 1388   0.642  13.512   7.613  0.2824  0.0216 -0.0836
    2PHE    SC2 1389   0.676  13.738   7.756  0.1837 -0.0912  0.1236
    2PHE    SC3 1390   0.891  13.601   7.666  0.2723 -0.2980  0.6164
    1GLY     BB 1391  15.430  14.359   1.283 -0.0770 -0.1219 -0.0023
    2PHE     BB 1392  15.280  14.388   0.927 -0.0882  0.0497 -0.1720
    2PHE    SC1 1393  15.068  14.584   0.916 -0.1630  0.1593 -0.2583
    2PHE    SC2 1394  14.851  14.566   1.074 -0.0126 -0.3480 -0.0889
    2PHE    SC3 1395  14.821  14.594   0.808 -0.2791 -0.2316 -0.0505
    1GLY     BB 1396  10.598   0.169   3.893 -0.2217  0.2041  0.0745
    2PHE     BB 1397  10.978   0.125   3.759  0.0040 -0.2939  0.3066
    2PHE    SC1 1398  11.066  -0.097   3.872  0.1398  0.1044 -0.2229
    2PHE    SC2 1399  11.000  -0.248   4.086  0.2889  0.4143  0.0502
    2PHE    SC3 1400  11.183  -0.337   3.908  0.0319  0.0759 -0.0530
    1GLY     BB 1401   0.315   3.314   8.674  0.1702 -0.0573  0.1409
    2PHE     BB 1402   0.513   3.394   8.669 -0.2474  0.0026 -0.1040
    2PHE    SC1 1403   0.662   3.609   8.476 -0.1259  0.0222 -0.1365
    2PHE    SC2 1404   0.647   3.634   8.208  0.0994  0.1455 -0.1403
    2PHE    SC3 1405   0.714   3.847   8.360  0.0226  0.0639  0.0106
    1GLY     BB 1406  12.074  12.225   6.869  0.1830 -0.1106  0.0140
    2PHE     BB 1407  11.924  12.059   7.021 -0.1079  0.0016  0.0500
    2PHE    SC1 1408  12.088  11.906   7.225 -0.0087 -0.0051 -0.0907
    2PHE    SC2 1409  12.137  11.958   7.485 -0.0054  0.1047 -0.1130
    2PHE    SC3 1410  12.272  11.761   7.360 -0.2323 -0.1628  0.0518
    1GLY     BB 1411   2.396  13.632  15.967  0.2544 -0.2540 -0.1113
    2PHE     BB 1412   2.458  13.507  15.792  0.1263  0.0852 -0.0494
    2PHE    SC1 1413   2.677  13.501  15.597 -0.3165 -0.0059 -0.0851
    2PHE    SC2 1414   2.745  13.644  15.378  0.0457  0.0298  0.0436
    2PHE    SC3 1415   2.918  13.465  15.481 -0.1986 -0.1286  0.1898
    1GLY     BB 1416   3.811  11.684  13.238  0.2864  0.0306  0.2257
    2PHE     BB 1417   3.610  11.592  13.329  0.1489  0.4930 -0.0732
    2PHE    SC1 1418   3.564  11.278  13.314 -0.1381 -0.1740  0.0328
    2PHE    SC2 1419   3.511  11.060  13.464  0.0557 -0.2915 -0.0645
    2PHE    SC3 1420   3.547  11.035  13.198 -0.1882 -0.0991 -0.1197
    1GLY     BB 1421  13.872  14.026   0.841 -0.4013  0.0000 -0.1350
    2PHE     BB 1422  14.010  14.094   0.981  0.1649  0.0476 -0.1174
    2PHE    SC1 1423  14.074  14.389   1.073  0.3344  0.1634  0.4870
    2PHE    SC2 1424  14.109  14.655   1.046 -0.2686  0.2380  0.2748
    2PHE    SC3 1425  13.871  14.558   1.127 -0.1759 -0.2533  0.0016
    1GLY     BB 1426   9.069  12.029  12.483 -0.0891  0.4559 -0.1217
    2PHE     BB 1427   9.390  12.002  12.459 -0.2249 -0.1014 -0.3851
    2PHE    SC1 1428   9.477  11.781  12.261 -0.2266 -0.1123  0.1194
    2PHE    SC2 1429   9.397  11.549  12.149  0.0474  0.0063 -0.3483
    2PHE    SC3 1430   9.656  11.583  12.218 -0.0745  0.0201  0.1326
    1GLY     BB 1431   9.989  11.453   7.737 -0.1579  0.0313  0.1116
    2PHE     BB 1432   9.984  11.219   7.869  0.0059 -0.1639  0.0294
    2PHE    SC1 1433  10.286  11.119   7.879 -0.1342 -0.3427  0.2024
    2PHE    SC2 1434  10.427  10.890   7.895 -0.0584 -0.3282 -0.1742
    2PHE    SC3 1435  10.527  11.101   7.759 -0.2038 -0.1280  0.0231
    1GLY     BB 1436   6.430  13.166   9.050  0.1537  0.1528  0.0632
    2PHE     BB 1437   6.443  13.374   8.804 -0.1673  0.0065  0.0647
    2PHE    SC1 1438   6.449  13.345   8.500  0.0192  0.0347  0.2201
    2PHE    SC2 1439   6.517  13.393   8.243  0.1769  0.2473  0.2990
    2PHE    SC3 1440   6.559  13.149   8.350 -0.3749 -0.0098 -0.0256
    1GLY     BB 1441   1.962  11.585   1.919  0.0054  0.3804  0.0846
    2PHE     BB 1442   1.951  11.532   2.151  0.0749  0.0715 -0.1709
    2PHE    SC1 1443   1.807  11.399   2.343  0.3311 -0.0301  0.1892
    2PHE    SC2 1444   1.770  11.390   2.610  0.0619 -0.1949  0.1501
    2PHE    SC3 1445   1.613  11.243   2.447 -0.0385  0.2030 -0.1256
    1GLY     BB 1446   3.754   6.709  15.870 -0.2771 -0.0315 -0.2293
    2PHE     BB 1447   3.607   6.704  16.018  0.1516  0.0101  0.0357
    2PHE    SC1 1448   3.367   6.869  16.016  0.1852  0.2670 -0.1571
    2PHE    SC2 1449   3.130   6.979  15.948 -0.0449 -0.0819  0.0523
    2PHE    SC3 1450   3.298   7.112  16.112 -0.1291  0.1349 -0.0343
    1GLY     BB 1451   5.406   1.862   1.580 -0.1130  0.3475  0.0932
    2PHE     BB 1452   5.440   1.717   1.855  0.0052 -0.2639  0.1740
    2PHE    SC1 1453   5.504   1.945   2.046  0.0167  0.0563  0.1200
    2PHE    SC2 1454   5.633   2.171   2.117  0.1765  0.0764 -0.2115
    2PHE    SC3 1455   5.443   2.067   2.279  0.2174  0.3526  0.0233
    1GLY     BB 1456   8.919   7.650   5.613 -0.0199  0.0343 -0.0258
    2PHE     BB 1457   8.705   7.597   5.725  0.1305  0.1244  0.2177
    2PHE    SC1 1458   8.533   7.368   5.674 -0.0743 -0.0149 -0.0268
    2PHE    SC2 1459   8.460   7.232   5.452 -0.1864 -0.1667  0.1008
    2PHE    SC3 1460   8.559   7.099   5.666  0.4629  0.0253 -0.0569
    1GLY     BB 1461  15.786  10.934  13.198  0.0081  0.0851  0.0107
    2PHE     BB 1462  15.443  10.805  13.321  0.3962  0.3476  0.1363
    2PHE    SC1 1463  15.563  10.550  13.405 -0.2047 -0.0343 -0.1965
    2PHE    SC2 1464  15.772  10.435  13.279 -0.2466 -0.1154 -0.1936
    2PHE    SC3 1465  15.575  10.281  13.380 -0.1734 -0.0570  0.0442
    1GLY     BB 1466  12.081   1.393   9.162 -0.1113  0.0597 -0.0681
    2PHE     BB 1467  11.963   1.560   9.288  0.0446  0.0723  0.0121
    2PHE    SC1 1468  11.655   1.614   9.322 -0.2299 -0.3903 -0.1567
    2PHE    SC2 1469  11.407   1.642   9.424 -0.1432  0.3056 -0.0868
    2PHE    SC3 1470  11.472   1.764   9.192  0.0226 -0.2319 -0.3388
    1GLY     BB 1471   2.035   4.113  12.984  0.2343  0.0598 -0.2076
    2PHE     BB 1472   1.727   4.008  13.053  0.2375  0.2697 -0.3183
    2PHE    SC1 1473   1.768   3.749  13.215 -0.0551 -0.1365 -0.2275
    2PHE    SC2 1474   1.638   3.523  13.285 -0.4672  0.1247 -0.1062
    2PHE    SC3 1475   1.838   3.618  13.440 -0.3293 -0.1202 -0.1283
    1GLY     BB 1476   1.359  13.141   7.335  0.2570  0.1701  0.1227
    2PHE     BB 1477   1.314  12.821   7.392 -0.1001 -0.0262  0.0662
    2PHE    SC1 1478   1.274  12.725   7.682  0.2349 -0.4983  0.0836
    2PHE    SC2 1479   1.046  12.639   7.798 -0.0518  0.1428  0.0390
    2PHE    SC3 1480   1.265  12.686   7.949 -0.1957  0.2733  0.2114
    1GLY     BB 1481  12.685   3.021  15.052  0.3265 -0.0652  0.0578
    2PHE     BB 1482  12.449   2.991  14.943 -0.1830  0.0979  0.0273
    2PHE    SC1 1483  12.400   2.801  14.714  0.0251  0.0318  0.3278
    2PHE    SC2 1484  12.229   2.626  14.601  0.0039  0.1299  0.2044
    2PHE    SC3 1485  12.453   2.537  14.722 -0.1504 -0.0022  0.3993
    1GLY     BB 1486   7.612   5.391  12.239  0.0438  0.2026  0.0855
    2PHE     BB 1487   7.782   5.386  12.008 -0.0838  0.3179  0.0724
    2PHE    SC1 1488   8.067   5.327  11.997  0.1286  0.1160 -0.3872
    2PHE    SC2 1489   8.254   5.488  12.108  0.1815 -0.0834 -0.1790
    2PHE    SC3 1490   8.274   5.220  12.133 -0.1496 -0.1081 -0.1243
    1GLY     BB 1491   2.098   2.603   8.724  0.0292 -0.3571 -0.1957
    2PHE     BB 1492   2.267   2.536   8.903  0.0757 -0.3009 -0.2724
    2PHE    SC1 1493   2.376   2.703   9.153 -0.2291  0.0341  0.1341
    2PHE    SC2 1494   2.526   2.720   9.377  0.2976  0.0215 -0.1991
    2PHE    SC3 1495   2.399   2.939   9.282 -0.0016  0.0078  0.1453
    1GLY     BB 1496  12.567   2.961   2.920 -0.1915  0.3913 -0.0289
    2PHE     BB 1497  12.787   3.066   3.190 -0.1857  0.0840  0.1408
    2PHE    SC1 1498  12.786   3.348   3.018 -0.0994  0.1172  0.0950
    2PHE    SC2 1499  12.874   3.441   2.780 -0.1605  0.1032  0.0669
    2PHE    SC3 1500  12.658   3.553   2.898 -0.0267  0.2254  0.1999
    1GLY     BB 1501  15.578   3.758  15.779 -0.0827 -0.0831  0.2112
    2PHE     BB 1502  15.336   3.950  15.862 -0.0369 -0.0141  0.0352
    2PHE    SC1 1503  15.096   3.797  15.924  0.2474 -0.2043 -0.3042
    2PHE    SC2 1504  14.833   3.750  15.889  0.1378 -0.0885  0.2635
    2PHE    SC3 1505  14.981   3.583  16.042  0.4696 -0.3063 -0.2660
    1GLY     BB 1506   0.726   0.404  13.867  0.1630 -0.1669 -0.0989
    2PHE     BB 1507   0.912   0.354  13.817 -0.3481  0.1894  0.1271
    2PHE    SC1 1508   1.210   0.306  13.777 -0.1082  0.0195  0.4921
    2PHE    SC2 1509   1.389   0.192  13.610 -0.3418  0.4246 -0.0653
    2PHE    SC3 1510   1.470   0.289  13.848  0.0611  0.1009 -0.0597
    1GLY     BB 1511   0.321  10.747   9.314 -0.1767  0.1313  0.0438
    2PHE     BB 1512   0.515  10.791   9.292 -0.1355  0.1027 -0.1307
    2PHE    SC1 1513   0.641  10.982   9.546 -0.1311  0.0576  0.4894
    2PHE    SC2 1514   0.547  11.235   9.552 -0.0727  0.1021 -0.0236
    2PHE    SC3 1515   0.741  11.159   9.724 -0.1950  0.3565  0.2358
    1GLY     BB 1516  16.014  11.419  11.425  0.0983  0.1243  0.0671
    2PHE     BB 1517  16.091  11.527  11.592 -0.2999  0.4280 -0.0165
    2PHE    SC1 1518  16.361  11.536  11.730  0.0835 -0.2014 -0.1090
    2PHE    SC2 1519  16.520  11.496  11.943  0.0703 -0.0154 -0.0628
    2PHE    SC3 1520  16.616  11.624  11.726 -0.0344  0.1620 -0.0063
    1GLY     BB 1521   0.928   5.919   0.524  0.0610 -0.0310 -0.0409
    2PHE     BB 1522   1.245   6.195   0.634  0.1004  0.0381  0.4402
    2PHE    SC1 1523   1.478   6.018   0.669  0.0432 -0.3573 -0.2553
    2PHE    SC2 1524   1.656   5.912   0.843 -0.1152 -0.1392  0.0495
    2PHE    SC3 1525   1.537   5.754   0.659  0.2827 -0.3148 -0.0692
    1GLY     BB 1526  14.143   1.347   5.265  0.2294  0.3615  0.1447
    2PHE     BB 1527  14.358   1.367   5.400 -0.0608 -0.2270  0.2453
    2PHE    SC1 1528  14.490   1.615   5.492  0.1115 -0.0706 -0.3648
    2PHE    SC2 1529  14.688   1.773   5.398  0.1555 -0.0052 -0.1674
    2PHE    SC3 1530  14.724   1.634   5.627 -0.1203  0.2175  0.0178
    1GLY     BB 1531   6.876  13.308   7.312 -0.0950 -0.1525  0.0415
    2PHE     BB 1532   7.091  13.443   7.558 -0.2886 -0.0171  0.1185
    2PHE    SC1 1533   7.036  13.563   7.834  0.1591  0.1680  0.0194
    2PHE    SC2 1534   6.880  13.596   8.052 -0.4246  0.0421 -0.3575
    2PHE    SC3 1535   7.042  13.796   7.970 -0.0402  0.0222  0.2885
    1GLY     BB 1536  14.980   5.154   4.070 -0.0472  0.2105  0.0232
    2PHE     BB 1537  15.120   5.258   4.190  0.1837  0.0275  0.0561
    2PHE    SC1 1538  15.055   5.468   4.423 -0.3389 -0.1763  0.0528
    2PHE    SC2 1539  15.078   5.503   4.690 -0.3149 -0.4201  0.0856
    2PHE    SC3 1540  14.960   5.693   4.538  0.2644  0.0357  0.1697
    1GLY     BB 1541   6.321   1.000   6.936  0.0531 -0.0385  0.2557
    2PHE     BB 1542   6.093   0.703   6.969 -0.0197  0.0277 -0.0294
    2PHE    SC1 1543   6.178   0.498   6.808  0.3823 -0.1714 -0.1725
    2PHE    SC2 1544   6.075   0.372   6.593  0.1829 -0.1209 -0.1088
    2PHE    SC3 1545   6.324   0.312   6.678  0.1766 -0.3062 -0.2155
    1GLY     BB 1546   3.134   7.624   3.770 -0.1070 -0.1772 -0.2277
    2PHE     BB 1547   3.155   7.440   3.839  0.1120  0.1708 -0.0238
    2PHE    SC1 1548   3.407   7.263   3.996  0.1068 -0.1490 -0.1383
    2PHE    SC2 1549   3.462   7.023   4.106  0.0073 -0.1833 -0.1629
    2PHE    SC3 1550   3.662   7.176   4.010  0.0794 -0.2203 -0.0734
    1GLY     BB 1551   7.912  15.816  13.194  0.1015  0.2586 -0.1132
    2PHE     BB 1552   7.864  15.813  12.986 -0.1576  0.0236 -0.0339
    2PHE    SC1 1553   8.000  15.867  12.718 -0.1683  0.2877  0.2304
    2PHE    SC2 1554   8.103  16.085  12.597 -0.1426  0.1579  0.0133
    2PHE    SC3 1555   8.243  15.855  12.602 -0.3293  0.0392 -0.0966
    1GLY     BB 1556   4.988  14.430  14.939  0.1850  0.2139 -0.0180
    2PHE     BB 1557   5.173  14.475  15.064  0.1165  0.0153  0.2019
    2PHE    SC1 1558   5.320  14.477  15.305  0.0444 -0.1847 -0.0424
    2PHE    SC2 1559   5.495  14.368  15.479  0.0212  0.0824  0.1532
    2PHE    SC3 1560   5.450  14.634  15.482 -0.3205  0.0302  0.0442
    1GLY     BB 1561   0.136  15.162   3.105  0.1415  0.0937  0.2846
    2PHE     BB 1562   0.451  15.239   3.129  0.1408  0.1323 -0.1721
    2PHE    SC1 1563   0.590  14.985   3.142  0.1381 -0.1428 -0.1696
    2PHE    SC2 1564   0.623  14.735   3.045 -0.0259 -0.2908  0.1393
    2PHE    SC3 1565   0.803  14.838   3.218  0.0241 -0.2060  0.0379
    1GLY     BB 1566  12.782   5.790   3.284 -0.1572  0.4171  0.1710
    2PHE     BB 1567  13.060   5.702   3.128 -0.0744 -0.2086 -0.1598
    2PHE    SC1 1568  13.174   5.847   2.895 -0.0453  0.1973  0.1637
    2PHE    SC2 1569  13.361   5.929   2.719 -0.0461  0.2069  0.1673
    2PHE    SC3 1570  13.133   6.070   2.750 -0.0457  0.2055  0.1765
    1GLY     BB 1571  15.679  11.276   2.547 -0.0816 -0.2345 -0.1185
    2PHE     BB 1572  15.623  11.250   2.302 -0.1581 -0.0988 -0.1205
    2PHE    SC1 1573  15.493  11.488   2.179 -0.1719 -0.2677 -0.0701
    2PHE    SC2 1574  15.237  11.569   2.153 -0.0915  0.0066 -0.0413
    2PHE    SC3 1575  15.414  11.616   1.955 -0.0407 -0.0953 -0.0204
    1GLY     BB 1576   9.524   9.155  14.323 -0.1416  0.0025 -0.0458
    2PHE     BB 1577   9.520   8.940  14.414 -0.1189 -0.1576 -0.1483
    2PHE    SC1 1578   9.440   8.807  14.672  0.3325  0.1377 -0.1072
    2PHE    SC2 1579   9.384   8.751  14.930 -0.1000  0.4759 -0.1163
    2PHE    SC3 1580   9.597   8.636  14.810 -0.1758 -0.0719  0.2392
    1GLY     BB 1581  13.953  10.171   5.282  0.1921 -0.0177 -0.0254
    2PHE     BB 1582  14.016  10.073   5.564 -0.3832 -0.1419  0.0129
    2PHE    SC1 1583  14.308  10.069   5.621  0.2446 -0.3090  0.1429
    2PHE    SC2 1584  14.568  10.098   5.553  0.1984 -0.2872 -0.0313
    2PHE    SC3 1585  14.500   9.952   5.770  0.3712 -0.0593  0.1826
    1GLY     BB 1586   1.078   5.586   1.115 -0.2510 -0.0240 -0.0068
    2PHE     BB 1587   1.063   5.785   0.984 -0.1460 -0.0992 -0.1032
    2PHE    SC1 1588   1.187   6.028   1.074 -0.1116  0.0533 -0.2404
    2PHE    SC2 1589   1.412   6.177   1.089  0.0194 -0.1386 -0.2564
    2PHE    SC3 1590   1.173   6.284   1.156  0.1693 -0.0549  0.1781
    1GLY     BB 1591   6.960  14.923   1.220 -0.0263 -0.3087 -0.0234
    2PHE     BB 1592   6.846  15.172   1.088  0.2102  0.0241 -0.2261
    2PHE    SC1 1593   7.137  15.286   1.014  0.3032  0.1520 -0.0208
    2PHE    SC2 1594   7.323  15.475   1.064  0.3127  0.2636 -0.4340
    2PHE    SC3 1595   7.390  15.214   1.073  0.2895  0.2637  0.1824
    1GLY     BB 1596   0.452   3.300   7.883 -0.3571  0.0527  0.1633
    2PHE     BB 1597   0.200   3.622   7.692 -0.4242 -0.0334  0.0443
    2PHE    SC1 1598   0.366   3.858   7.829 -0.0216  0.2053  0.2402
    2PHE    SC2 1599   0.439   4.116   7.803  0.4018  0.0541 -0.2384
    2PHE    SC3 1600   0.399   4.011   8.049  0.0240  0.6130 -0.0395
    1GLY     BB 1601  13.674   8.539  11.009 -0.2437 -0.2769 -0.1027
    2PHE     BB 1602  13.479   8.340  11.027  0.2443 -0.0659 -0.1157
    2PHE    SC1 1603  13.185   8.422  10.929 -0.2825 -0.3752  0.0358
    2PHE    SC2 1604  13.003   8.442  10.730 -0.1915  0.1710 -0.0090
    2PHE    SC3 1605  12.933   8.501  10.984 -0.2744 -0.4043  0.1150
    1GLY     BB 1606   7.796  11.251   4.069  0.0921  0.0253  0.0163
    2PHE     BB 1607   7.859  11.054   4.028 -0.0251 -0.0285 -0.0319
    2PHE    SC1 1608   8.037  10.814   3.959 -0.2576 -0.1523 -0.0475
    2PHE    SC2 1609   8.129  10.727   3.720 -0.0853 -0.1735  0.0249
    2PHE    SC3 1610   8.271  10.680   3.945 -0.1956 -0.0646  0.1192
    1GLY     BB 1611  11.272  13.828   8.320  0.0486 -0.0491  0.2100
    2PHE     BB 1612  11.116  13.751   8.622  0.0335 -0.2176 -0.0920
    2PHE    SC1 1613  10.841  13.741   8.573  0.2299 -0.0700 -0.2475
    2PHE    SC2 1614  10.621  13.590   8.615  0.2110  0.0810  0.2610
    2PHE    SC3 1615  10.596  13.838   8.513  0.1743  0.0076  0.0873
    1GLY     BB 1616   1.469  13.048  10.736  0.0461  0.0316 -0.1010
    2PHE     BB 1617   1.318  13.142  10.670  0.2956  0.0785 -0.3829
    2PHE    SC1 1618   1.049  12.997  10.633  0.2497 -0.0433 -0.1701
    2PHE    SC2 1619   0.804  12.967  10.524  0.1579  0.0461  0.0066
    2PHE    SC3 1620   0.863  12.847  10.759  0.2807  0.0337 -0.0300
    1GLY     BB 1621  14.394  10.678  12.949 -0.4064  0.1285 -0.1362
    2PHE     BB 1622  14.430  10.653  12.636 -0.0661 -0.0922 -0.2545
    2PHE    SC1 1623  14.402  10.414  12.469  0.4676 -0.2047  0.1790
    2PHE    SC2 1624  14.315  10.200  12.328  0.1176  0.0333  0.0211
    2PHE    SC3 1625  14.500  10.365  12.222  0.0367  0.0731 -0.0596
    1GLY     BB 1626   0.709  10.710  11.713 -0.3748 -0.0369  0.1440
    2PHE     BB 1627   0.800  10.919  12.038 -0.1252 -0.1606 -0.0351
    2PHE    SC1 1628   0.840  11.204  12.037 -0.0415  0.1545  0.0835
    2PHE    SC2 1629   0.709  11.429  11.969  0.0245  0.2037  0.1176
    2PHE    SC3 1630   0.977  11.435  12.004  0.0136  0.1420  0.2153
    1GLY     BB 1631   5.521  13.141   2.158  0.2756 -0.0347 -0.1923
    2PHE     BB 1632   5.284  13.086   2.235 -0.0366 -0.2280 -0.2527
    2PHE    SC1 1633   5.158  12.796   2.226  0.0157  0.1320 -0.1581
    2PHE    SC2 1634   4.996  12.699   2.033  0.0440  0.1048 -0.1681
    2PHE    SC3 1635   5.093  12.534   2.224 -0.1381  0.1675 -0.0186
    1GLY     BB 1636   8.390  16.116   7.924 -0.0374  0.0639 -0.0933
    2PHE     BB 1637   8.468  16.370   7.761  0.1216  0.0488 -0.0339
    2PHE    SC1 1638   8.599  16.588   7.585  0.2742  0.1007 -0.0994
    2PHE    SC2 1639   8.812  16.639   7.428  0.2263  0.2049 -0.1312
    2PHE    SC3 1640   8.666  16.843   7.529  0.2565  0.1392  0.0493
    1GLY     BB 1641  11.760   5.922  15.062 -0.3083  0.3767 -0.1080
    2PHE     BB 1642  11.500   5.849  15.220 -0.0842  0.1740 -0.1325
    2PHE    SC1 1643  11.605   5.910  15.512 -0.1503  0.2152 -0.1928
    2PHE    SC2 1644  11.807   5.841  15.678 -0.4800 -0.3497  0.0041
    2PHE    SC3 1645  11.615   6.010  15.762 -0.3383 -0.1727 -0.0212
    1GLY     BB 1646   8.375  15.522   5.801  0.1736 -0.2961 -0.0738
    2PHE     BB 1647   8.593  15.604   5.601  0.0912  0.1484 -0.1420
    2PHE    SC1 1648   8.689  15.604   5.314  0.1518  0.0321  0.0473
    2PHE    SC2 1649   8.895  15.653   5.146 -0.1150  0.3031 -0.2150
    2PHE    SC3 1650   8.642  15.653   5.052 -0.2307 -0.2420  0.0565
    1GLY     BB 1651   8.571   5.580   1.188 -0.1236  0.1267 -0.1265
    2PHE     BB 1652   8.259   5.558   1.083 -0.0384 -0.4088  0.1733
    2PHE    SC1 1653   8.236   5.323   0.913  0.4247  0.1228 -0.2430
    2PHE    SC2 1654   8.347   5.222   0.689 -0.1376 -0.0217 -0.4732
    2PHE    SC3 1655   8.100   5.144   0.764  0.0959 -0.1028  0.2967
    1GLY     BB 1656   0.402   8.873  13.601  0.1724  0.1598  0.2267
    2PHE     BB 1657   0.601   8.672  13.664 -0.2000 -0.1370 -0.2502
    2PHE    SC1 1658   0.892   8.773  13.720 -0.0557  0.1570  0.2041
    2PHE    SC2 1659   0.959   9.009  13.832  0.0786  0.2556 -0.0744
    2PHE    SC3 1660   1.114   8.902  13.638  0.0376 -0.0806  0.0711
    1GLY     BB 1661   9.768  13.215   4.748  0.3687  0.1259  0.0325
    2PHE     BB 1662   9.426  13.479   4.641 -0.1137  0.0373  0.1380
    2PHE    SC1 1663   9.290  13.214   4.534  0.0867  0.1511  0.0434
    2PHE    SC2 1664   9.190  13.009   4.389  0.0427  0.1674  0.0506
    2PHE    SC3 1665   9.276  12.966   4.641 -0.0807  0.1819  0.0959
    1GLY     BB 1666  16.057   9.548   6.366  0.0286  0.0936 -0.2616
    2PHE     BB 1667  15.737   9.321   6.253 -0.0917  0.2130  0.1717
    2PHE    SC1 1668  15.645   9.476   6.009  0.0006  0.0774 -0.2962
    2PHE    SC2 1669  15.544   9.726   5.994 -0.1760  0.0129 -0.2084
    2PHE    SC3 1670  15.494   9.548   5.797  0.0418  0.0779 -0.3254
    1GLY     BB 1671   4.688   8.168  14.997 -0.0381 -0.0683  0.1425
    2PHE     BB 1672   4.620   8.000  14.805  0.3485 -0.0959  0.3092
    2PHE    SC1 1673   4.800   7.904  14.629  0.0644 -0.0729  0.2066
    2PHE    SC2 1674   5.027   7.857  14.490 -0.1226 -0.0406 -0.1185
    2PHE    SC3 1675   4.787   7.846  14.366 -0.2643  0.4984  0.0813
    1GLY     BB 1676   6.227  13.655  14.248  0.2711 -0.3756  0.1936
    2PHE     BB 1677   6.034  13.731  14.423 -0.0231  0.0346  0.2304
    2PHE    SC1 1678   6.068  13.676  14.711 -0.3651  0.2390  0.0956
    2PHE    SC2 1679   6.283  13.545  14.808 -0.2746  0.0468 -0.3406
    2PHE    SC3 1680   6.088  13.625  14.976  0.1248  0.2196  0.0645
    1GLY     BB 1681  10.959  11.936   8.466 -0.0445 -0.0589 -0.1012
    2PHE     BB 1682  11.047  11.929   8.616 -0.1020 -0.2931 -0.0982
    2PHE    SC1 1683  10.958  11.819   8.929  0.4965 -0.0143  0.1887
    2PHE    SC2 1684  10.854  11.753   9.170 -0.1354  0.2915  0.0221
    2PHE    SC3 1685  10.782  11.615   8.950  0.0157  0.3536 -0.0686
    1GLY     BB 1686   3.111   1.284   6.341 -0.1538 -0.0595 -0.1720
    2PHE     BB 1687   3.228   0.980   6.446 -0.0026  0.1756 -0.1697
    2PHE    SC1 1688   3.255   0.694   6.492 -0.1094 -0.1039 -0.2967
    2PHE    SC2 1689   3.197   0.433   6.530  0.0037 -0.1308 -0.3060
    2PHE    SC3 1690   3.454   0.511   6.496  0.0126  0.0266  0.0703
    1GLY     BB 1691   7.515   9.408  15.891  0.1557  0.0233 -0.1153
    2PHE     BB 1692   7.406   9.579  15.927 -0.3356 -0.0965 -0.0381
    2PHE    SC1 1693   7.188   9.716  15.759 -0.0191  0.1701 -0.0822
    2PHE    SC2 1694   7.205   9.957  15.639  0.2185  0.1338 -0.1265
    2PHE    SC3 1695   7.099   9.747  15.506 -0.2218  0.2665 -0.0011
    1GLY     BB 1696   7.120  14.341   8.005  0.0400  0.1184 -0.0865
    2PHE     BB 1697   6.827  14.201   7.931  0.0862 -0.1739  0.0276
    2PHE    SC1 1698   6.692  14.026   8.138 -0.2437  0.0997 -0.0313
    2PHE    SC2 1699   6.473  13.868   8.138 -0.1670 -0.0121 -0.2691
    2PHE    SC3 1700   6.656  13.845   8.335 -0.2929 -0.0245 -0.1522
    1GLY     BB 1701  15.227  12.519   3.212  0.3683 -0.0838 -0.1672
    2PHE     BB 1702  15.385  12.249   3.136 -0.0085  0.1340 -0.3248
    2PHE    SC1 1703  15.542  12.123   3.376  0.1192 -0.0958  0.1724
    2PHE    SC2 1704  15.791  12.033   3.428  0.0843 -0.1460  0.2534
    2PHE    SC3 1705  15.576  11.882   3.491  0.0322 -0.0913  0.2084
    1GLY     BB 1706  14.047  14.208   4.578  0.1512 -0.0779  0.0973
    2PHE     BB 1707  14.073  14.016   4.831  0.2281 -0.0146 -0.0685
    2PHE    SC1 1708  14.281  13.793   4.862 -0.0997  0.1776  0.3250
    2PHE    SC2 1709  14.443  13.626   5.000  0.1200  0.1669  0.0619
    2PHE    SC3 1710  14.310  13.536   4.783 -0.2228  0.1836  0.2589
    1GLY     BB 1711  12.853  11.805  11.379 -0.0896 -0.0789 -0.0186
    2PHE     BB 1712  12.711  11.605  11.280  0.1020  0.0291  0.1120
    2PHE    SC1 1713  12.853  11.343  11.159  0.2647  0.0914  0.0801
    2PHE    SC2 1714  12.828  11.112  11.021  0.0861 -0.1088  0.4339
    2PHE    SC3 1715  13.068  11.185  11.120  0.1570 -0.1062  0.2627
    1GLY     BB 1716   8.166  15.447  11.761  0.0256  0.0410 -0.0449
    2PHE     BB 1717   8.175  15.794  11.833 -0.1445 -0.1552  0.3376
    2PHE    SC1 1718   8.003  15.853  12.038 -0.1571 -0.0939  0.0334
    2PHE    SC2 1719   7.832  15.908  12.241 -0.2041 -0.0239 -0.0247
    2PHE    SC3 1720   8.026  16.084  12.177 -0.0137 -0.1700  0.1382
    1GLY     BB 1721   5.826   0.212  14.626  0.1580  0.1543  0.0477
    2PHE     BB 1722   5.734   0.241  14.835  0.0405  0.0114 -0.0894
    2PHE    SC1 1723   5.727   0.064  15.059  0.1803  0.0517  0.1173
    2PHE    SC2 1724   5.542  -0.096  15.172  0.2202  0.1174  0.2786
    2PHE    SC3 1725   5.798  -0.106  15.257  0.1973  0.3590  0.3828
    1GLY     BB 1726   5.365   1.228   7.019 -0.0789  0.2283 -0.1417
    2PHE     BB 1727   5.260   1.204   7.241  0.1182 -0.1103  0.1004
    2PHE    SC1 1728   5.247   1.087   7.529 -0.2276  0.1394 -0.3082
    2PHE    SC2 1729   5.288   0.935   7.748  0.3628  0.3351 -0.2649
    2PHE    SC3 1730   5.068   1.089   7.730  0.1485  0.0781  0.0414
    1GLY     BB 1731   7.946  14.386   3.260  0.2363  0.2921  0.0790
    2PHE     BB 1732   7.994  14.020   3.014  0.0216  0.2585 -0.1308
    2PHE    SC1 1733   8.102  13.811   3.271 -0.0945  0.2510 -0.1539
    2PHE    SC2 1734   8.020  13.569   3.360  0.0323  0.2945  0.0903
    2PHE    SC3 1735   8.284  13.624   3.341  0.0041  0.4069  0.0140
    1GLY     BB 1736   4.163  10.611  13.293  0.0797  0.0748  0.1500
    2PHE     BB 1737   3.982  10.783  13.473  0.0120 -0.0399 -0.0145
    2PHE    SC1 1738   3.728  10.638  13.483  0.0070 -0.1322 -0.1673
    2PHE    SC2 1739   3.604  10.481  13.664  0.1584  0.0085  0.0637
    2PHE    SC3 1740   3.459  10.613  13.478 -0.0042 -0.0968  0.1130
    1GLY     BB 1741   3.622   2.532   5.181 -0.2343 -0.0781 -0.0232
    2PHE     BB 1742   3.620   2.588   5.341  0.2198 -0.1788 -0.4420
    2PHE    SC1 1743   3.714   2.787   5.582  0.1489 -0.0837  0.0504
    2PHE    SC2 1744   3.533   2.976   5.648  0.1146 -0.0805 -0.0508
    2PHE    SC3 1745   3.668   2.845   5.842 -0.0301 -0.1163  0.0276
    1GLY     BB 1746   6.702   2.311   1.801  0.0883  0.0035 -0.0050
    2PHE     BB 1747   6.578   2.157   1.873  0.3147 -0.0327 -0.1335
    2PHE    SC1 1748   6.257   2.030   1.821 -0.0306 -0.0310  0.2658
    2PHE    SC2 1749   6.039   1.873   1.789  0.0984 -0.1528 -0.0611
    2PHE    SC3 1750   6.023   2.098   1.937 -0.2471 -0.1629 -0.0767
    1GLY     BB 1751   2.249  13.649  10.957 -0.0661 -0.1089 -0.0760
    2PHE     BB 1752   2.434  13.431  10.884  0.0767  0.1369 -0.1289
    2PHE    SC1 1753   2.508  13.215  11.112  0.0676  0.1466  0.2342
    2PHE    SC2 1754   2.402  13.023  11.270  0.1209 -0.0929 -0.0138
    2PHE    SC3 1755   2.661  13.094  11.299  0.0879 -0.0211  0.1115
    1GLY     BB 1756   9.195   6.205  10.732  0.1872 -0.0015 -0.1138
    2PHE     BB 1757   9.013   6.299  10.816  0.2620 -0.2285 -0.0165
    2PHE    SC1 1758   8.883   6.585  10.877  0.0427 -0.0218  0.1438
    2PHE    SC2 1759   8.955   6.838  10.815 -0.0884 -0.0111  0.0309
    2PHE    SC3 1760   8.758   6.794  10.995  0.2090 -0.0405  0.3600
    1GLY     BB 1761  14.887  14.539   5.250 -0.4617 -0.2365 -0.1853
    2PHE     BB 1762  15.021  14.401   5.473  0.1824 -0.1397 -0.3089
    2PHE    SC1 1763  15.120  14.117   5.526 -0.3717  0.0248  0.2709
    2PHE    SC2 1764  15.070  13.887   5.660  0.0448 -0.1050  0.2171
    2PHE    SC3 1765  15.125  13.880   5.395 -0.0068  0.0648  0.2009
    1GLY     BB 1766   9.809  12.919  11.656  0.1927  0.2000  0.1033
    2PHE     BB 1767   9.986  13.023  11.852 -0.0290  0.0134 -0.0735
    2PHE    SC1 1768  10.000  12.841  12.115 -0.0040 -0.1533  0.1477
    2PHE    SC2 1769  10.003  12.606  12.248  0.1484 -0.0998  0.2418
    2PHE    SC3 1770   9.932  12.833  12.376 -0.1738 -0.1188  0.1053
    1GLY     BB 1771   9.834   5.903   0.214 -0.0061  0.0047  0.0920
    2PHE     BB 1772   9.795   6.073   0.017 -0.0361  0.1349 -0.1756
    2PHE    SC1 1773   9.536   6.193  -0.073  0.2050 -0.2544 -0.3497
    2PHE    SC2 1774   9.299   6.141  -0.192  0.0686 -0.4126 -0.0203
    2PHE    SC3 1775   9.426   6.373  -0.242 -0.3081 -0.1866  0.0301
    1GLY     BB 1776  15.441   0.621   9.478 -0.1393 -0.1484 -0.0834
    2PHE     BB 1777  15.422   0.557   9.241 -0.0630 -0.0633 -0.0454
    2PHE    SC1 1778  15.352   0.421   9.030 -0.2503  0.0738 -0.1261
    2PHE    SC2 1779  15.376   0.245   8.826  0.1114  0.1350 -0.1424
    2PHE    SC3 1780  15.135   0.288   8.940  0.0068 -0.3362 -0.1664
    1GLY     BB 1781   1.570  11.969  11.820 -0.1555 -0.0894 -0.0294
    2PHE     BB 1782   1.337  12.000  11.845  0.1768 -0.1655 -0.0879
    2PHE    SC1 1783   1.151  12.155  11.611 -0.1107  0.2693  0.3299
    2PHE    SC2 1784   1.075  12.069  11.366  0.3362  0.1172  0.2365
    2PHE    SC3 1785   0.899  12.200  11.524 -0.1021 -0.1994  0.0296
    1GLY     BB 1786   4.277   0.393   5.353 -0.1954  0.0524  0.0185
    2PHE     BB 1787   4.252   0.104   5.439  0.2733 -0.1751 -0.1066
    2PHE    SC1 1788   4.009  -0.021   5.569  0.3113 -0.3383 -0.0002
    2PHE    SC2 1789   3.748   0.025   5.620  0.2604  0.1347 -0.5835
    2PHE    SC3 1790   3.887  -0.147   5.775 -0.2822  0.1784 -0.0070
    1GLY     BB 1791  14.928  11.470  14.877  0.0358  0.2455 -0.0396
    2PHE     BB 1792  14.813  11.240  14.960  0.0484 -0.0805  0.0830
    2PHE    SC1 1793  14.864  11.157  15.269 -0.3386  0.1916 -0.0613
    2PHE    SC2 1794  14.838  11.118  15.535  0.1411  0.0877 -0.0199
    2PHE    SC3 1795  15.068  11.053  15.411 -0.1302 -0.0172 -0.4952
    1GLY     BB 1796  11.583   6.556  15.767  0.2742  0.0194  0.1358
    2PHE     BB 1797  11.432   6.422  15.942 -0.0772 -0.1028 -0.0102
    2PHE    SC1 1798  11.465   6.212  16.135 -0.0607  0.0774 -0.0693
    2PHE    SC2 1799  11.438   6.186  16.402 -0.0040 -0.0642 -0.0764
    2PHE    SC3 1800  11.546   5.985  16.258  0.3640  0.1757 -0.1502
    1GLY     BB 1801   4.562  12.965   9.666 -0.1151 -0.1481  0.1650
    2PHE     BB 1802   4.775  12.884   9.581  0.0025  0.0802 -0.0845
    2PHE    SC1 1803   4.949  12.643   9.636 -0.0385  0.1725  0.0825
    2PHE    SC2 1804   5.003  12.381   9.595  0.1372  0.2210 -0.0048
    2PHE    SC3 1805   5.187  12.541   9.711 -0.0159  0.2814  0.1608
    1GLY     BB 1806   6.620   5.744   9.622 -0.1643  0.0118 -0.2187
    2PHE     BB 1807   6.807   5.610   9.628  0.1436  0.2265  0.0063
    2PHE    SC1 1808   7.071   5.550   9.712  0.1423  0.1486  0.1837
    2PHE    SC2 1809   7.249   5.475   9.901  0.2081  0.0544  0.0852
    2PHE    SC3 1810   7.333   5.611   9.683  0.1838 -0.1160 -0.0326
    1GLY     BB 1811  14.638   6.081   3.682 -0.0192 -0.2200  0.1322
    2PHE     BB 1812  14.520   6.150   3.458 -0.2416 -0.0764 -0.5792
    2PHE    SC1 1813  14.244   6.115   3.387  0.1449 -0.4028 -0.0402
    2PHE    SC2 1814  14.018   5.998   3.479  0.0639  0.0664  0.3988
    2PHE    SC3 1815  14.004   6.184   3.283  0.1582 -0.3923 -0.0641
    1GLY     BB 1816  13.039   0.378   3.338 -0.1742 -0.1612 -0.0067
    2PHE     BB 1817  13.123   0.637   3.365  0.0204 -0.0209  0.1529
    2PHE    SC1 1818  12.999   0.794   3.625 -0.0180 -0.0994 -0.1323
    2PHE    SC2 1819  12.984   0.906   3.870  0.1488 -0.0172 -0.1583
    2PHE    SC3 1820  12.759   0.864   3.727  0.0621  0.0542 -0.0452
    1GLY     BB 1821   8.168   2.973   6.769 -0.0778 -0.0344  0.2907
    2PHE     BB 1822   8.259   2.895   7.046  0.3173 -0.0368 -0.1234
    2PHE    SC1 1823   8.310   2.619   7.109  0.2153 -0.2202  0.4578
    2PHE    SC2 1824   8.385   2.360   7.108  0.0653 -0.2741 -0.0622
    2PHE    SC3 1825   8.141   2.429   7.200  0.0694 -0.3278 -0.0103
    1GLY     BB 1826  11.956   1.949   2.857  0.1051 -0.5272  0.0605
    2PHE     BB 1827  12.147   1.814   2.589 -0.1767 -0.2122 -0.1349
    2PHE    SC1 1828  12.431   1.927   2.663 -0.0047 -0.1026 -0.0358
    2PHE    SC2 1829  12.536   2.154   2.559  0.2625 -0.3086 -0.2310
    2PHE    SC3 1830  12.616   2.066   2.802 -0.1450  0.0161  0.0345
    1GLY     BB 1831   3.526  10.727   9.245 -0.1655  0.5554  0.0516
    2PHE     BB 1832   3.718  10.698   9.029 -0.0548 -0.0348 -0.0647
    2PHE    SC1 1833   3.971  10.784   9.202 -0.3093  0.0669  0.0062
    2PHE    SC2 1834   4.226  10.807   9.118 -0.2988  0.1349  0.0562
    2PHE    SC3 1835   4.141  10.951   9.330 -0.2684 -0.1865  0.2926
    1GLY     BB 1836   1.501  13.462   8.937 -0.2814  0.0606 -0.0664
    2PHE     BB 1837   1.557  13.618   8.801  0.1194  0.0289  0.2540
    2PHE    SC1 1838   1.818  13.803   8.847  0.1749 -0.2692 -0.2830
    2PHE    SC2 1839   2.086  13.784   8.871  0.1954 -0.0617 -0.3255
    2PHE    SC3 1840   1.963  14.019   8.920  0.0085 -0.1821 -0.2050
    1GLY     BB 1841  11.405  11.295   8.670  0.0880 -0.3886 -0.0985
    2PHE     BB 1842  11.269  11.400   8.825 -0.2180  0.1796  0.0579
    2PHE    SC1 1843  11.136  11.399   9.090 -0.0281 -0.0582 -0.0146
    2PHE    SC2 1844  11.131  11.349   9.355  0.0441 -0.0581 -0.0129
    2PHE    SC3 1845  10.912  11.301   9.204 -0.0357  0.0513  0.0663
    1GLY     BB 1846   5.210  10.149  14.474  0.2544  0.2145  0.2342
    2PHE     BB 1847   5.313   9.973  14.574 -0.1709 -0.1080  0.0903
    2PHE    SC1 1848   5.237   9.719  14.737 -0.1429  0.3348  0.1752
    2PHE    SC2 1849   5.175   9.470  14.819  0.0508  0.2307  0.0147
    2PHE    SC3 1850   5.066   9.684  14.943 -0.1063  0.0685  0.1630
    1GLY     BB 1851   1.435   7.344  15.696  0.1556 -0.0551  0.1170
    2PHE     BB 1852   1.385   7.326  15.917 -0.0768 -0.1446 -0.0011
    2PHE    SC1 1853   1.401   7.239  16.184  0.1421  0.0861  0.3203
    2PHE    SC2 1854   1.303   7.101  16.394  0.0491 -0.0506  0.1888
    2PHE    SC3 1855   1.369   7.361  16.422 -0.6493  0.1456  0.2094
    1GLY     BB 1856  15.305   5.240  11.793 -0.0511 -0.1482  0.0900
    2PHE     BB 1857  15.478   5.378  11.813 -0.1362  0.1833 -0.0715
    2PHE    SC1 1858  15.531   5.656  11.731  0.2619 -0.1204 -0.2508
    2PHE    SC2 1859  15.531   5.840  11.533 -0.4653  0.0057 -0.1621
    2PHE    SC3 1860  15.501   5.918  11.790 -0.3272 -0.2119 -0.0773
    1GLY     BB 1861  15.645  12.129   1.785 -0.0532  0.0874 -0.3451
    2PHE     BB 1862  15.760  11.922   1.861 -0.1792 -0.0239 -0.0684
    2PHE    SC1 1863  15.796  11.882   2.195 -0.0380 -0.1026 -0.1430
    2PHE    SC2 1864  15.651  11.809   2.411 -0.2391 -0.1972 -0.3070
    2PHE    SC3 1865  15.895  11.701   2.369  0.1422  0.3687  0.2708
    1GLY     BB 1866   7.786   6.904   9.225  0.0581  0.3158  0.0019
    2PHE     BB 1867   7.595   6.832   9.290 -0.0353  0.3467 -0.3397
    2PHE    SC1 1868   7.309   6.838   9.301 -0.2118  0.3545  0.4434
    2PHE    SC2 1869   7.064   6.736   9.251  0.0400 -0.2058  0.2700
    2PHE    SC3 1870   7.163   6.930   9.093 -0.0954 -0.3311  0.0246
    1GLY     BB 1871  12.154  11.384  15.884 -0.0986 -0.1738  0.0604
    2PHE     BB 1872  12.058  11.522  16.048  0.0338  0.0120 -0.1796
    2PHE    SC1 1873  12.101  11.843  16.059  0.3472 -0.1814 -0.0637
    2PHE    SC2 1874  12.298  12.015  15.990  0.2383 -0.1199 -0.2268
    2PHE    SC3 1875  12.079  11.991  15.834 -0.1509  0.2307  0.2360
    1GLY     BB 1876   8.939  14.369  11.752 -0.1495 -0.1170 -0.0757
    2PHE     BB 1877   9.163  14.679  11.778 -0.2829 -0.2000  0.0427
    2PHE    SC1 1878   9.261  14.590  12.062  0.1329 -0.1964  0.0269
    2PHE    SC2 1879   9.429  14.445  12.217  0.1070 -0.0498  0.1958
    2PHE    SC3 1880   9.252  14.614  12.331 -0.0426 -0.0787  0.0119
    1GLY     BB 1881  15.027   8.253   2.849  0.1706  0.1550 -0.0399
    2PHE     BB 1882  15.314   8.307   2.621  0.0229  0.0460 -0.1906
    2PHE    SC1 1883  15.614   8.334   2.755  0.0431  0.3351 -0.1176
    2PHE    SC2 1884  15.828   8.383   2.912 -0.0075 -0.1240  0.1108
    2PHE    SC3 1885  15.823   8.162   2.757 -0.1665  0.0738 -0.1743
    1GLY     BB 1886  10.010  15.816   3.160 -0.0211 -0.2660  0.1573
    2PHE     BB 1887   9.916  16.007   3.392  0.0117 -0.3449  0.2732
    2PHE    SC1 1888  10.173  16.053   3.558  0.1095 -0.4028  0.0568
    2PHE    SC2 1889  10.428  16.097   3.636  0.1541  0.0282 -0.2938
    2PHE    SC3 1890  10.223  16.181   3.791  0.2236 -0.1198 -0.1180
    1GLY     BB 1891  10.204   9.015   6.654  0.1432  0.3025  0.2052
    2PHE     BB 1892  10.205   8.803   6.800 -0.1833  0.0699 -0.3169
    2PHE    SC1 1893  10.166   8.524   6.802 -0.0183  0.0724 -0.3538
    2PHE    SC2 1894  10.251   8.270   6.772 -0.1037 -0.0170  0.0845
    2PHE    SC3 1895  10.012   8.346   6.671 -0.1440 -0.1511  0.0774
    1GLY     BB 1896  13.201  11.811   9.941  0.2056 -0.1886  0.2466
    2PHE     BB 1897  13.051  11.803   9.799  0.0035  0.2141 -0.1553
    2PHE    SC1 1898  13.035  11.856   9.505  0.0991  0.2472  0.2065
    2PHE    SC2 1899  13.020  11.933   9.247  0.1523 -0.2382  0.0479
    2PHE    SC3 1900  13.260  11.872   9.356  0.1584  0.1730  0.2869
    1GLY     BB 1901   2.210  12.514   4.296 -0.1294 -0.2620 -0.0049
    2PHE     BB 1902   2.445  12.482   4.326 -0.1099 -0.0388 -0.1941
    2PHE    SC1 1903   2.746  12.412   4.376 -0.1426 -0.1098 -0.1809
    2PHE    SC2 1904   2.977  12.391   4.237 -0.1451 -0.2044 -0.1709
    2PHE    SC3 1905   2.983  12.419   4.506 -0.1267  0.3303 -0.2170
    1GLY     BB 1906  10.035  10.482   9.144  0.0256  0.0454 -0.0473
    2PHE     BB 1907  10.112  10.775   9.413  0.0269 -0.0504 -0.2539
    2PHE    SC1 1908  10.352  10.996   9.393 -0.2825  0.1356  0.2124
    2PHE    SC2 1909  10.467  11.166   9.569  0.2459  0.2230 -0.1902
    2PHE    SC3 1910  10.620  10.997   9.425 -0.2297 -0.2932 -0.1263
    1GLY     BB 1911  14.285   8.903   1.594  0.0111  0.0934  0.0048
    2PHE     BB 1912  14.449   9.166   1.606 -0.0496  0.2760 -0.0031
    2PHE    SC1 1913  14.552   9.281   1.864 -0.2390  0.2923  0.0361
    2PHE    SC2 1914  14.461   9.480   2.024 -0.0543  0.1848  0.2823
    2PHE    SC3 1915  14.476   9.227   2.117 -0.3108  0.0445 -0.0362
    1GLY     BB 1916   1.593   6.798   7.301  0.2596 -0.0680 -0.2012
    2PHE     BB 1917   1.321   6.910   7.534  0.1400  0.0946  0.3094
    2PHE    SC1 1918   1.110   6.863   7.329  0.2021 -0.1051 -0.0432
    2PHE    SC2 1919   0.897   6.713   7.396  0.1854 -0.0657 -0.0072
    2PHE    SC3 1920   0.931   6.791   7.140  0.0584  0.0809  0.0191
    1GLY     BB 1921   0.339   3.654   1.605  0.1476 -0.0909 -0.1378
    2PHE     BB 1922   0.292   3.516   1.378  0.4153 -0.4610  0.0721
    2PHE    SC1 1923   0.266   3.666   1.107  0.0896  0.0780 -0.0963
    2PHE    SC2 1924   0.032   3.726   0.986  0.0452 -0.1051 -0.1045
    2PHE    SC3 1925   0.238   3.628   0.841  0.1665  0.1572 -0.1164
    1GLY     BB 1926   0.420   2.632  11.828  0.0523 -0.1537 -0.1862
    2PHE     BB 1927   0.528   2.544  11.697 -0.1888  0.1704  0.1185
    2PHE    SC1 1928   0.737   2.310  11.632  0.0671  0.1779  0.3362
    2PHE    SC2 1929   0.829   2.147  11.437 -0.4203  0.2661  0.0147
    2PHE    SC3 1930   0.818   2.059  11.692 -0.3931 -0.0966 -0.1030
    1GLY     BB 1931  15.003   8.582  11.343 -0.2521  0.2061 -0.0135
    2PHE     BB 1932  15.153   8.339  11.356  0.2029 -0.0099 -0.0227
    2PHE    SC1 1933  15.401   8.248  11.483 -0.3090  0.0457 -0.2501
    2PHE    SC2 1934  15.579   8.098  11.345 -0.0257  0.2329 -0.0984
    2PHE    SC3 1935  15.588   8.104  11.615 -0.3911  0.0943 -0.0776
    1GLY     BB 1936   7.107   9.413   5.815 -0.1027  0.2070 -0.2039
    2PHE     BB 1937   7.010   9.295   5.482  0.0329  0.1006  0.1311
    2PHE    SC1 1938   7.117   9.045   5.316 -0.0523  0.1229 -0.0759
    2PHE    SC2 1939   7.313   8.860   5.309  0.0863  0.2624  0.0428
    2PHE    SC3 1940   7.307   9.058   5.126  0.0316  0.2344  0.0141
    1GLY     BB 1941   5.936   5.648   0.867 -0.0416 -0.1808  0.1484
    2PHE     BB 1942   5.799   5.895   0.973 -0.0894  0.0837 -0.0414
    2PHE    SC1 1943   5.647   5.850   1.263 -0.0523  0.1986  0.3653
    2PHE    SC2 1944   5.384   5.907   1.285 -0.1530 -0.1350  0.1098
    2PHE    SC3 1945   5.532   5.867   1.507 -0.3053  0.0940  0.2569
    1GLY     BB 1946   2.039  12.706  15.284  0.0429  0.4043  0.0235
    2PHE     BB 1947   2.027  12.586  15.224  0.2563  0.0201  0.3563
    2PHE    SC1 1948   2.074  12.247  15.292 -0.2125 -0.0144  0.1336
    2PHE    SC2 1949   2.168  12.075  15.106 -0.1859  0.0986  0.0414
    2PHE    SC3 1950   2.250  12.055  15.363  0.0732  0.1785 -0.0315
    1GLY     BB 1951   6.723   7.135   7.939  0.0250  0.0292 -0.1193
    2PHE     BB 1952   6.742   7.127   7.517  0.2388 -0.0966  0.2248
    2PHE    SC1 1953   6.932   7.356   7.488  0.1137 -0.0967 -0.2200
    2PHE    SC2 1954   7.164   7.451   7.590 -0.1400  0.1362  0.1677
    2PHE    SC3 1955   6.975   7.623   7.502 -0.2076 -0.0489 -0.0581
    1GLY     BB 1956  13.146   3.647   0.369 -0.3998  0.0532  0.0690
    2PHE     BB 1957  13.073   3.324   0.305 -0.0336  0.0207  0.0693
    2PHE    SC1 1958  12.802   3.337   0.447  0.0859 -0.5615  0.2471
    2PHE    SC2 1959  12.656   3.371   0.671  0.1531  0.0569  0.2148
    2PHE    SC3 1960  12.534   3.304   0.440 -0.0391  0.2575  0.2549
    1GLY     BB 1961  12.841  11.961   2.326 -0.5460 -0.1966 -0.2835
    2PHE     BB 1962  12.734  11.957   2.527  0.3187 -0.3497 -0.1461
    2PHE    SC1 1963  12.432  12.032   2.599 -0.1481  0.3793 -0.1996
    2PHE    SC2 1964  12.240  12.081   2.781  0.0654 -0.0095  0.1484
    2PHE    SC3 1965  12.176  12.063   2.520 -0.2791  0.3593  0.1965
    1GLY     BB 1966  10.537  15.482   2.715  0.2087 -0.3653 -0.1236
    2PHE     BB 1967  10.387  15.592   2.912 -0.0932  0.2366  0.1066
    2PHE    SC1 1968  10.495  15.605   3.181  0.2648 -0.0922 -0.0447
    2PHE    SC2 1969  10.541  15.835   3.315 -0.0004 -0.2666  0.3647
    2PHE    SC3 1970  10.647  15.603   3.404 -0.0813 -0.3685  0.1997
    1GLY     BB 1971  10.844   4.062   8.993 -0.2301 -0.0599  0.2025
    2PHE     BB 1972  10.696   4.147   8.836 -0.0935  0.2019 -0.0857
    2PHE    SC1 1973  10.486   4.106   8.602 -0.2325 -0.0957  0.1624
    2PHE    SC2 1974  10.427   4.053   8.344 -0.1809  0.0368  0.1227
    2PHE    SC3 1975  10.287   3.933   8.542 -0.2226 -0.0628  0.0337
    1GLY     BB 1976  15.346  10.459   5.175  0.5024 -0.0365 -0.0654
    2PHE     BB 1977  15.269  10.136   5.241 -0.1949 -0.2611 -0.3682
    2PHE    SC1 1978  15.143  10.125   5.522  0.0132 -0.1424  0.0430
    2PHE    SC2 1979  15.115   9.925   5.700  0.0968 -0.0885  0.1176
    2PHE    SC3 1980  15.023  10.171   5.759  0.3293 -0.0146  0.1843
    1GLY     BB 1981   2.736  11.500  15.720  0.1891  0.1116  0.1187
    2PHE     BB 1982   2.727  11.532  15.385 -0.0350  0.0634 -0.0978
    2PHE    SC1 1983   2.460  11.576  15.257 -0.0145 -0.5554 -0.1091
    2PHE    SC2 1984   2.410  11.541  14.994 -0.0566  0.1257 -0.2115
    2PHE    SC3 1985   2.205  11.561  15.169 -0.0554  0.3330 -0.2323
    1GLY     BB 1986  10.504  10.988   8.353 -0.2377 -0.1552  0.3078
    2PHE     BB 1987  10.479  10.685   8.516  0.0423  0.3125 -0.3356
    2PHE    SC1 1988  10.534  10.741   8.835 -0.1531  0.4903 -0.1182
    2PHE    SC2 1989  10.666  10.903   9.006 -0.1031  0.2263  0.1006
    2PHE    SC3 1990  10.538  10.684   9.099 -0.0415  0.0536 -0.2060
    1GLY     BB 1991   6.344   5.150   3.339 -0.1862  0.1136  0.0062
    2PHE     BB 1992   6.275   4.847   3.250  0.3462  0.0227 -0.1649
    2PHE    SC1 1993   6.378   4.547   3.291  0.0868  0.1280  0.0791
    2PHE    SC2 1994   6.469   4.372   3.475 -0.1046 -0.1971 -0.1244
    2PHE    SC3 1995   6.264   4.303   3.313 -0.3388  0.3040 -0.0598
    1GLY     BB 1996  15.694   5.473   6.100  0.1661  0.0812 -0.0750
    2PHE     BB 1997  15.622   5.280   6.037 -0.1351  0.1367  0.0502
    2PHE    SC1 1998  15.430   5.082   6.138 -0.3080  0.0573  0.1031
    2PHE    SC2 1999  15.351   4.842   6.232 -0.1986 -0.0342 -0.0342
    2PHE    SC3 2000  15.277   4.921   5.984  0.1596 -0.1377 -0.1803
    1GLY     BB 2001  13.568   2.753   3.451  0.2624  0.3751  0.0425
    2PHE     BB 2002  13.846   2.781   3.541  0.0244 -0.2005 -0.0357
    2PHE    SC1 2003  13.957   2.896   3.811 -0.2381  0.1096  0.1126
    2PHE    SC2 2004  14.085   3.104   3.926 -0.1661  0.0704  0.1036
    2PHE    SC3 2005  13.869   2.995   4.047 -0.0599 -0.0041  0.2291
    1GLY     BB 2006   8.842   8.672  11.825 -0.1791  0.0723 -0.1369
    2PHE     BB 2007   8.762   8.461  11.582 -0.1039  0.4870  0.1305
    2PHE    SC1 2008   8.777   8.547  11.310  0.1960  0.2897 -0.1801
    2PHE    SC2 2009   8.899   8.736  11.161  0.7593  0.0205 -0.0852
    2PHE    SC3 2010   8.912   8.477  11.087  0.0667 -0.0083 -0.1698
    1GLY     BB 2011  15.356   9.892   2.668  0.0042  0.0198  0.0734
    2PHE     BB 2012  15.412   9.791   3.002  0.0664 -0.0699 -0.0400
    2PHE    SC1 2013  15.633   9.592   3.007 -0.0894 -0.0358  0.0444
    2PHE    SC2 2014  15.803   9.530   2.807 -0.0045 -0.2381  0.1771
    2PHE    SC3 2015  15.821   9.403   3.045 -0.3147 -0.2328  0.2070
    1GLY     BB 2016  11.681   0.403  12.045 -0.1809 -0.1341  0.2148
    2PHE     BB 2017  11.771   0.491  12.232  0.1763  0.0970  0.1025
    2PHE    SC1 2018  11.844   0.591  12.526 -0.0267 -0.3304  0.3436
    2PHE    SC2 2019  11.899   0.855  12.509 -0.1485 -0.3055  0.3261
    2PHE    SC3 2020  11.859   0.740  12.751 -0.0816 -0.3109  0.3347
    1GLY     BB 2021   1.272   4.094  11.496  0.2894 -0.1385  0.2650
    2PHE     BB 2022   1.186   4.299  11.477 -0.1915 -0.1506 -0.0059
    2PHE    SC1 2023   1.037   4.440  11.671 -0.0632 -0.4457  0.2203
    2PHE    SC2 2024   1.047   4.562  11.912  0.2255 -0.1940  0.0881
    2PHE    SC3 2025   0.817   4.561  11.769  0.2308  0.2750  0.0588
    1GLY     BB 2026   4.408   0.563   7.213  0.2029  0.0242  0.1669
    2PHE     BB 2027   4.804   0.867   7.173  0.0801  0.1315  0.0054
    2PHE    SC1 2028   4.715   1.038   7.365  0.6438 -0.1941  0.4029
    2PHE    SC2 2029   4.617   1.064   7.615  0.0377 -0.1053  0.1742
    2PHE    SC3 2030   4.677   1.284   7.470 -0.1730 -0.1326  0.0416
    1GLY     BB 2031   5.810  11.783  10.052 -0.2732  0.1336  0.0413
    2PHE     BB 2032   5.737  12.073  10.070  0.0643  0.1229  0.0203
    2PHE    SC1 2033   5.772  12.227   9.812  0.1303 -0.1206  0.1040
    2PHE    SC2 2034   5.702  12.277   9.556  0.2182 -0.2816  0.0470
    2PHE    SC3 2035   5.781  12.479   9.716 -0.0208 -0.1516  0.0051
    1GLY     BB 2036   2.116  13.557   4.487 -0.0379  0.0829 -0.0580
    2PHE     BB 2037   2.327  13.749   4.656  0.0995  0.0116  0.2808
    2PHE    SC1 2038   2.597  13.615   4.683 -0.0426  0.1031  0.2569
    2PHE    SC2 2039   2.739  13.396   4.612 -0.2424  0.0944 -0.1435
    2PHE    SC3 2040   2.765  13.500   4.860 -0.3290 -0.5298  0.1456
    1GLY     BB 2041  15.289  16.156   9.798 -0.0661  0.2384  0.2086
    2PHE     BB 2042  15.617  15.939   9.945 -0.2996  0.2336  0.0485
    2PHE    SC1 2043  15.744  15.970   9.654  0.3312  0.1942  0.2620
    2PHE    SC2 2044  15.896  15.894   9.444 -0.0317 -0.0927  0.0907
    2PHE    SC3 2045  15.628  15.909   9.417 -0.0870 -0.1469  0.5393
    1GLY     BB 2046   1.538   6.835   2.830  0.0234 -0.3658  0.2110
    2PHE     BB 2047   1.609   7.114   2.986  0.0481 -0.1791  0.0862
    2PHE    SC1 2048   1.416   7.348   3.018 -0.2407 -0.2296  0.1115
    2PHE    SC2 2049   1.194   7.425   3.150 -0.0253 -0.0025  0.3535
    2PHE    SC3 2050   1.318   7.598   2.984 -0.2518 -0.2612 -0.1070
    1GLY     BB 2051   0.242  13.408   7.836  0.4581  0.0913 -0.1866
    2PHE     BB 2052   0.220  12.997   7.808 -0.2864  0.1295 -0.0931
    2PHE    SC1 2053  -0.054  12.871   7.804  0.1735 -0.2339  0.1092
    2PHE    SC2 2054  -0.321  12.837   7.824  0.0977  0.2459  0.0389
    2PHE    SC3 2055  -0.164  12.631   7.749 -0.2520 -0.0370  0.0575
    1GLY     BB 2056   4.238   4.982  11.063 -0.2041  0.0032 -0.0091
    2PHE     BB 2057   4.147   5.177  11.376  0.1838  0.1001  0.2644
    2PHE    SC1 2058   4.404   5.337  11.404 -0.1308  0.0089  0.0808
    2PHE    SC2 2059   4.633   5.468  11.462 -0.0584 -0.2571  0.4281
    2PHE    SC3 2060   4.397   5.563  11.552 -0.0943  0.0180  0.0688
    1GLY     BB 2061  13.617  13.269   4.930 -0.1241  0.0907  0.0993
    2PHE     BB 2062  13.736  13.124   5.071  0.1391  0.0730  0.1970
    2PHE    SC1 2063  13.996  13.140   5.223  0.0827  0.0726  0.0234
    2PHE    SC2 2064  14.107  13.082   5.462  0.2547 -0.5684 -0.1894
    2PHE    SC3 2065  14.248  13.220   5.277  0.0818  0.0271  0.0955
    1GLY     BB 2066   3.275  15.092  12.518 -0.0808  0.0879 -0.0825
    2PHE     BB 2067   3.176  14.982  12.334 -0.2076 -0.0771  0.2837
    2PHE    SC1 2068   3.255  14.987  12.029  0.3660 -0.1039  0.0478
    2PHE    SC2 2069   3.274  14.763  11.880 -0.1112  0.1023 -0.3512
    2PHE    SC3 2070   3.404  14.987  11.803 -0.0352  0.1008 -0.2292
    1GLY     BB 2071   7.071   0.104   7.870  0.1083  0.2633  0.1315
    2PHE     BB 2072   7.204  -0.104   7.817  0.0465 -0.0577 -0.1682
    2PHE    SC1 2073   7.162  -0.347   7.649 -0.1818  0.0645  0.3307
    2PHE    SC2 2074   6.968  -0.411   7.472 -0.0987 -0.0021  0.2623
    2PHE    SC3 2075   7.227  -0.415   7.396 -0.0624 -0.0250  0.3842
    1GLY     BB 2076  13.741   8.304  10.198 -0.2251  0.0110 -0.1079
    2PHE     BB 2077  13.938   8.221  10.191  0.1767 -0.0586 -0.2244
    2PHE    SC1 2078  14.096   7.949  10.154 -0.0631 -0.2066  0.4173
    2PHE    SC2 2079  14.342   7.843  10.120 -0.1949 -0.3884 -0.0523
    2PHE    SC3 2080  14.137   7.686  10.199 -0.2019 -0.2746  0.1643
    1GLY     BB 2081   8.587   0.478   4.552 -0.1474 -0.2788 -0.0757
    2PHE     BB 2082   8.840   0.550   4.338  0.0974 -0.2324  0.2871
    2PHE    SC1 2083   8.799   0.766   4.160  0.4763  0.3176 -0.0761
    2PHE    SC2 2084   8.898   0.867   3.931 -0.0387  0.4192 -0.2684
    2PHE    SC3 2085   8.648   0.932   4.009 -0.0826 -0.0639  0.0306
    1GLY     BB 2086   6.741  15.920  16.293 -0.2194 -0.2772 -0.2305
    2PHE     BB 2087   6.496  15.719  16.633 -0.1814 -0.0159 -0.1686
    2PHE    SC1 2088   6.557  15.422  16.620 -0.3342 -0.0933 -0.1770
    2PHE    SC2 2089   6.475  15.165  16.605 -0.1789 -0.1386 -0.2666
    2PHE    SC3 2090   6.620  15.273  16.404 -0.0472 -0.0507 -0.1259
    1GLY     BB 2091   1.560  12.315  11.347  0.0619  0.0574  0.1730
    2PHE     BB 2092   1.469  12.364  11.033  0.0935 -0.1464  0.0552
    2PHE    SC1 2093   1.159  12.385  11.021  0.1655 -0.1749 -0.1198
    2PHE    SC2 2094   0.945  12.388  10.856  0.1768  0.2969 -0.1379
    2PHE    SC3 2095   0.932  12.511  11.096  0.3314  0.0642 -0.0074
    1GLY     BB 2096   1.452  12.548  15.209 -0.3453 -0.0160 -0.2103
    2PHE     BB 2097   1.529  12.335  15.250 -0.1796 -0.0907  0.1150
    2PHE    SC1 2098   1.656  12.074  15.325 -0.0327  0.1445 -0.1017
    2PHE    SC2 2099   1.856  11.895  15.353 -0.0598  0.1258 -0.0217
    2PHE    SC3 2100   1.681  11.870  15.150 -0.5084 -0.3807  0.3956
    1GLY     BB 2101  10.353   7.186   6.149 -0.0658 -0.2606  0.1343
    2PHE     BB 2102  10.207   7.298   6.208 -0.1429  0.0502 -0.0928
    2PHE    SC1 2103  10.010   7.380   6.430  0.2060 -0.2547  0.0966
    2PHE    SC2 2104   9.879   7.493   6.637  0.2171  0.0071 -0.0355
    2PHE    SC3 2105   9.849   7.229   6.587 -0.2203  0.0485 -0.0319
    1GLY     BB 2106   5.401   7.998  13.146  0.1065  0.2010 -0.0787
    2PHE     BB 2107   5.472   7.966  12.895  0.2638  0.1979  0.0519
    2PHE    SC1 2108   5.356   7.723  12.718  0.1500  0.0107 -0.0078
    2PHE    SC2 2109   5.102   7.633  12.723  0.0820  0.2032  0.2554
    2PHE    SC3 2110   5.288   7.505  12.576 -0.1537  0.0291  0.1018
    1GLY     BB 2111  12.971   6.421   0.731 -0.0519 -0.0383  0.0757
    2PHE     BB 2112  12.975   6.387   1.013 -0.0688  0.0759 -0.1547
    2PHE    SC1 2113  12.757   6.468   1.199  0.4212 -0.2591  0.1511
    2PHE    SC2 2114  12.513   6.351   1.204  0.3216 -0.0537  0.1878
    2PHE    SC3 2115  12.573   6.546   1.381  0.5994 -0.2697  0.3398
    1GLY     BB 2116   5.646   7.912   2.399 -0.1991 -0.1474 -0.2031
    2PHE     BB 2117   5.743   8.186   2.340  0.1508 -0.1428  0.3447
    2PHE    SC1 2118   6.046   8.154   2.213 -0.0548 -0.2008  0.2107
    2PHE    SC2 2119   6.293   8.137   2.321 -0.0439  0.2720  0.2820
    2PHE    SC3 2120   6.247   8.303   2.113 -0.2427 -0.0368  0.0689
    1GLY     BB 2121   0.322  12.962   9.280 -0.2920 -0.0284 -0.0489
    2PHE     BB 2122   0.471  12.595   9.372 -0.3823  0.4951 -0.1957
    2PHE    SC1 2123   0.725  12.598   9.535  0.0157 -0.0011  0.1649
    2PHE    SC2 2124   0.989  12.542   9.528  0.0521  0.1656  0.1585
    2PHE    SC3 2125   0.889  12.697   9.725 -0.0428  0.0982  0.1644
    1GLY     BB 2126   1.461   8.186   8.743 -0.0641 -0.0683  0.2055
    2PHE     BB 2127   1.475   8.267   9.029 -0.1440  0.0533 -0.0059
    2PHE    SC1 2128   1.218   8.402   9.118  0.0176 -0.1896 -0.1130
    2PHE    SC2 2129   0.991   8.270   9.178  0.1582 -0.5117 -0.2660
    2PHE    SC3 2130   1.020   8.528   9.250 -0.0352 -0.6205  0.2427
    1GLY     BB 2131  13.832   1.750   2.750  0.0722 -0.0229 -0.0084
    2PHE     BB 2132  13.498   1.742   2.889  0.0205 -0.2830 -0.1290
    2PHE    SC1 2133  13.276   1.916   2.765  0.0836 -0.0815  0.1356
    2PHE    SC2 2134  13.060   2.038   2.658  0.1830  0.0727  0.1073
    2PHE    SC3 2135  13.288   2.018   2.515  0.1686 -0.1498  0.1115
    1GLY     BB 2136  11.289   5.452  15.526 -0.1742 -0.0381 -0.0004
    2PHE     BB 2137  11.121   5.479  15.359 -0.1945  0.2210 -0.3372
    2PHE    SC1 2138  11.004   5.536  15.077  0.1148 -0.2831  0.1679
    2PHE    SC2 2139  11.119   5.669  14.873 -0.1265 -0.2631  0.0410
    2PHE    SC3 2140  10.853   5.689  14.914 -0.0505 -0.0689  0.5078
    1GLY     BB 2141   1.969   9.437  12.365  0.0417  0.1767  0.4193
    2PHE     BB 2142   1.650   9.355  12.391 -0.3162 -0.0221 -0.1128
    2PHE    SC1 2143   1.486   9.367  12.663 -0.4052 -0.1973 -0.4138
    2PHE    SC2 2144   1.458   9.148  12.818  0.5930 -0.0773  0.0155
    2PHE    SC3 2145   1.348   9.382  12.895  0.0499 -0.2702 -0.1257
    1GLY     BB 2146   4.905   9.816   4.050 -0.0816 -0.1399 -0.1691
    2PHE     BB 2147   4.930  10.224   3.994  0.1178  0.1301  0.3454
    2PHE    SC1 2148   5.075  10.473   3.818  0.0814  0.0192  0.2981
    2PHE    SC2 2149   5.157  10.725   3.764  0.0253 -0.0699 -0.2492
    2PHE    SC3 2150   4.922  10.635   3.666  0.2401 -0.4661 -0.4263
    1GLY     BB 2151   5.101  11.721   7.337 -0.0104 -0.1281  0.0849
    2PHE     BB 2152   5.213  11.789   7.488 -0.0599 -0.4410  0.1493
    2PHE    SC1 2153   5.468  11.908   7.680 -0.0357 -0.2015  0.2916
    2PHE    SC2 2154   5.705  12.030   7.725 -0.1756  0.1545  0.1054
    2PHE    SC3 2155   5.577  11.904   7.927  0.1421  0.0032  0.2198
    1GLY     BB 2156   8.986   6.887   4.859  0.1784 -0.0119  0.2535
    2PHE     BB 2157   8.623   6.969   4.939  0.1730  0.1463  0.0161
    2PHE    SC1 2158   8.709   7.234   5.056  0.0722  0.1317 -0.0798
    2PHE    SC2 2159   8.783   7.476   5.149  0.2451  0.0077  0.1146
    2PHE    SC3 2160   8.965   7.278   5.128  0.1437 -0.0576 -0.2083
    1GLY     BB 2161  15.480  11.983  15.251 -0.0205 -0.0906 -0.1369
    2PHE     BB 2162  15.133  11.808  15.334  0.0309  0.0267  0.0490
    2PHE    SC1 2163  15.187  11.551  15.435  0.6045  0.1790 -0.0345
    2PHE    SC2 2164  15.349  11.364  15.543  0.1145 -0.2106  0.0615
    2PHE    SC3 2165  15.130  11.447  15.678  0.1616  0.2193 -0.1122
    1GLY     BB 2166   3.319   4.939   2.241  0.0973  0.2146 -0.3887
    2PHE     BB 2167   3.351   4.797   2.428  0.0065  0.0205  0.1317
    2PHE    SC1 2168   3.634   4.659   2.437 -0.0615 -0.1060 -0.2207
    2PHE    SC2 2169   3.762   4.424   2.400  0.1429  0.0189 -0.3307
    2PHE    SC3 2170   3.904   4.652   2.425 -0.0423  0.1028  0.0155
    1GLY     BB 2171   4.182   6.059   2.732  0.1191 -0.0296  0.0301
    2PHE     BB 2172   4.059   5.851   2.742  0.0925 -0.2866 -0.0268
    2PHE    SC1 2173   3.999   5.685   2.959 -0.3687  0.1273 -0.2328
    2PHE    SC2 2174   3.907   5.577   3.188  0.2250 -0.1060 -0.0859
    2PHE    SC3 2175   3.892   5.437   2.958  0.3897 -0.2328 -0.0222
    1GLY     BB 2176  15.166  11.709   0.955  0.1442  0.0706  0.0372
    2PHE     BB 2177  15.288  11.899   0.591  0.0008  0.0942 -0.2035
    2PHE    SC1 2178  15.536  12.050   0.695  0.0661  0.0647 -0.1436
    2PHE    SC2 2179  15.692  12.271   0.712 -0.0595  0.1531 -0.1250
    2PHE    SC3 2180  15.727  12.067   0.885 -0.1590  0.2987  0.0709
    1GLY     BB 2181   7.692   4.400   9.982  0.0591  0.2572  0.4938
    2PHE     BB 2182   7.500   4.531   9.904  0.1660  0.2149 -0.2195
    2PHE    SC1 2183   7.454   4.839   9.978  0.2148  0.0035 -0.0461
    2PHE    SC2 2184   7.503   5.097   9.916  0.1181  0.0154 -0.0746
    2PHE    SC3 2185   7.456   5.026  10.172 -0.0839  0.0638 -0.0967
    1GLY     BB 2186   8.930  14.259   8.954 -0.1873 -0.1139 -0.1497
    2PHE     BB 2187   8.991  14.344   9.109  0.0074  0.1571 -0.2552
    2PHE    SC1 2188   8.978  14.396   9.424  0.4413  0.0620  0.0429
    2PHE    SC2 2189   8.870  14.587   9.583  0.1031 -0.0808 -0.0058
    2PHE    SC3 2190   8.934  14.345   9.686 -0.3232 -0.2505 -0.1184
    1GLY     BB 2191  11.226  10.012  15.346  0.1840 -0.0607  0.0045
    2PHE     BB 2192  11.331  10.119  15.711  0.0845  0.1455  0.2423
    2PHE    SC1 2193  11.509  10.030  15.958 -0.0062 -0.2262 -0.1431
    2PHE    SC2 2194  11.645   9.891  16.146  0.1166 -0.0135 -0.0716
    2PHE    SC3 2195  11.526  10.125  16.210  0.2214  0.0989 -0.2728
    1GLY     BB 2196   1.916   3.933   5.221  0.1577  0.1102 -0.1961
    2PHE     BB 2197   1.672   4.190   5.274  0.0189 -0.2343 -0.1667
    2PHE    SC1 2198   1.506   4.214   5.038 -0.2940  0.2615 -0.0199
    2PHE    SC2 2199   1.282   4.282   4.903 -0.0878  0.0654 -0.4869
    2PHE    SC3 2200   1.468   4.127   4.785  0.0551 -0.2246  0.0803
    1GLY     BB 2201  10.337   8.448   7.286 -0.0931 -0.3766  0.1941
    2PHE     BB 2202  10.371   8.055   7.251 -0.1862  0.1332 -0.1828
    2PHE    SC1 2203  10.181   7.820   7.167 -0.4706  0.0937  0.3626
    2PHE    SC2 2204  10.012   7.651   7.043 -0.3494  0.0807  0.2115
    2PHE    SC3 2205  10.186   7.556   7.226 -0.1194 -0.0019 -0.0436
    1GLY     BB 2206  15.593  15.961   8.233 -0.1609  0.0206  0.0244
    2PHE     BB 2207  15.916  15.958   7.974 -0.1144  0.0591 -0.1147
    2PHE    SC1 2208  15.954  16.128   7.729  0.2106  0.3373 -0.0553
    2PHE    SC2 2209  15.821  16.199   7.505  0.1672  0.1719 -0.0828
    2PHE    SC3 2210  16.073  16.287   7.546  0.0812  0.4195 -0.0690
    1GLY     BB 2211  15.333   0.168   3.372  0.0773  0.0855 -0.1364
    2PHE     BB 2212  15.025   0.332   3.272  0.1168  0.1298 -0.0832
    2PHE    SC1 2213  15.142   0.466   3.015  0.1073 -0.2902  0.1130
    2PHE    SC2 2214  15.296   0.676   2.944 -0.2123 -0.0650  0.0617
    2PHE    SC3 2215  15.380   0.424   2.895  0.0512  0.0555 -0.1346
    1GLY     BB 2216  11.048   4.108   4.869 -0.1840  0.0011 -0.0217
    2PHE     BB 2217  10.882   4.296   5.060  0.1736  0.1636 -0.1619
    2PHE    SC1 2218  10.789   4.109   5.271  0.0293  0.1930 -0.0633
    2PHE    SC2 2219  10.738   4.102   5.536  0.0546 -0.0617 -0.0627
    2PHE    SC3 2220  10.599   3.943   5.368  0.2945 -0.1793 -0.1560
    1GLY     BB 2221  11.172  15.169   3.329 -0.0328 -0.0527  0.2975
    2PHE     BB 2222  11.352  15.307   3.375 -0.1804  0.1125  0.4250
    2PHE    SC1 2223  11.255  15.555   3.555  0.0649 -0.2405 -0.1516
    2PHE    SC2 2224  11.151  15.637   3.791 -0.1975  0.0743 -0.3685
    2PHE    SC3 2225  11.401  15.713   3.719 -0.0516 -0.1592 -0.1253
    1GLY     BB 2226  14.687   8.988   0.344 -0.1452  0.1239  0.0955
    2PHE     BB 2227  14.521   8.757   0.725  0.0086 -0.0495  0.2840
    2PHE    SC1 2228  14.804   8.627   0.701 -0.0709  0.2777  0.0810
    2PHE    SC2 2229  15.005   8.448   0.710 -0.2967  0.0142  0.0354
    2PHE    SC3 2230  15.008   8.663   0.873  0.0158  0.0126  0.0382
    1GLY     BB 2231  13.517  11.991  11.498  0.0690  0.2681 -0.0559
    2PHE     BB 2232  13.339  11.824  11.392  0.1873 -0.0812  0.3902
    2PHE    SC1 2233  13.222  11.536  11.386 -0.0535  0.0475 -0.2254
    2PHE    SC2 2234  13.110  11.354  11.551 -0.1145  0.1613 -0.1394
    2PHE    SC3 2235  13.351  11.305  11.439 -0.1672 -0.0067 -0.1823
    1GLY     BB 2236   9.304   9.420   6.303 -0.0269 -0.0961  0.3827
    2PHE     BB 2237   9.382   9.244   6.123  0.0058 -0.1089 -0.0342
    2PHE    SC1 2238   9.573   8.995   6.037  0.0795  0.2851 -0.2634
    2PHE    SC2 2239   9.582   8.728   5.994 -0.0857  0.2453 -0.0650
    2PHE    SC3 2240   9.808   8.876   5.977  0.0985  0.0182  0.2770
    1GLY     BB 2241   9.333   1.396  14.799  0.0187 -0.0901 -0.0046
    2PHE     BB 2242   9.216   1.182  14.903  0.1763 -0.0928  0.2206
    2PHE    SC1 2243   9.417   1.000  15.076  0.0385 -0.0144 -0.2895
    2PHE    SC2 2244   9.435   0.843  15.295 -0.1228  0.0016 -0.2642
    2PHE    SC3 2245   9.659   0.929  15.172 -0.0272  0.1396 -0.0003
    1GLY     BB 2246   3.264  15.556   8.628  0.3968  0.1563 -0.0690
    2PHE     BB 2247   3.423  15.452   8.819 -0.1574 -0.1492 -0.2128
    2PHE    SC1 2248   3.703  15.574   8.885  0.0880 -0.0129 -0.0384
    2PHE    SC2 2249   3.891  15.707   8.744  0.0288  0.1520  0.0366
    2PHE    SC3 2250   3.964  15.550   8.951  0.1387 -0.2709 -0.3088
    1GLY     BB 2251  10.587   3.574  11.801  0.1391 -0.0528 -0.1537
    2PHE     BB 2252  10.596   3.776  11.895  0.0544 -0.0595  0.0313
    2PHE    SC1 2253  10.821   3.979  11.879  0.0291  0.1381  0.0513
    2PHE    SC2 2254  10.905   4.183  11.724 -0.2115 -0.0649 -0.3613
    2PHE    SC3 2255  11.084   4.042  11.869 -0.0378  0.4074 -0.0934
    1GLY     BB 2256   8.375  12.320   6.701  0.0815  0.3005 -0.1364
    2PHE     BB 2257   8.570  12.256   6.947  0.2082 -0.3321  0.2486
    2PHE    SC1 2258   8.473  12.162   7.182  0.0106  0.2755  0.1991
    2PHE    SC2 2259   8.318  12.139   7.402  0.0978 -0.1038  0.2268
    2PHE    SC3 2260   8.527  11.972   7.365 -0.0070 -0.1510 -0.2184
    1GLY     BB 2261  14.731   8.255   1.950 -0.0626 -0.0344 -0.1091
    2PHE     BB 2262  14.923   8.228   1.759 -0.1091 -0.0560  0.0071
    2PHE    SC1 2263  15.019   8.321   1.481 -0.2815 -0.0488 -0.1935
    2PHE    SC2 2264  15.064   8.524   1.309  0.1959  0.2034  0.2041
    2PHE    SC3 2265  15.248   8.328   1.339  0.0506  0.0820  0.3198
    1GLY     BB 2266   9.873   5.389   5.634 -0.0188  0.0308 -0.2970
    2PHE     BB 2267   9.708   5.166   5.445 -0.1151  0.2404  0.1654
    2PHE    SC1 2268   9.874   4.951   5.326  0.0175  0.2967 -0.0289
    2PHE    SC2 2269   9.933   4.773   5.132 -0.0207  0.3567 -0.0961
    2PHE    SC3 2270  10.094   4.796   5.348 -0.1830  0.0181  0.0694
    1GLY     BB 2271  16.055   3.275  10.966  0.0053 -0.0628 -0.0573
    2PHE     BB 2272  15.929   3.093  10.902  0.2287  0.1422 -0.0171
    2PHE    SC1 2273  15.658   3.040  10.777  0.3341  0.3181 -0.2218
    2PHE    SC2 2274  15.429   3.089  10.643 -0.0490 -0.1277  0.2303
    2PHE    SC3 2275  15.575   2.869  10.586  0.2903  0.1612 -0.0653
    1GLY     BB 2276   4.747   3.217  15.909 -0.0116 -0.1996 -0.0160
    2PHE     BB 2277   4.947   3.085  15.922  0.2291  0.1537 -0.4167
    2PHE    SC1 2278   5.213   3.140  16.074 -0.0388  0.0528  0.2275
    2PHE    SC2 2279   5.478   3.177  16.044 -0.0126 -0.2048  0.1206
    2PHE    SC3 2280   5.331   3.361  16.175  0.1265  0.2074 -0.2775
    1GLY     BB 2281  10.564  11.497  14.283  0.2241  0.0603 -0.2210
    2PHE     BB 2282  10.243  11.618  14.058 -0.1096  0.3079 -0.1781
    2PHE    SC1 2283  10.019  11.878  14.120  0.4446  0.5221 -0.0856
    2PHE    SC2 2284   9.841  12.080  14.097  0.2079  0.3565  0.2290
    2PHE    SC3 2285   9.875  11.955  14.334  0.2692 -0.0473  0.0164
    1GLY     BB 2286  11.494  16.198  10.252  0.1253 -0.0614  0.0763
    2PHE     BB 2287  11.533  16.333  10.457  0.1252 -0.4090  0.0998
    2PHE    SC1 2288  11.639  16.631  10.453 -0.2901  0.2204 -0.1432
    2PHE    SC2 2289  11.825  16.802  10.359 -0.2025  0.1742 -0.0566
    2PHE    SC3 2290  11.716  16.843  10.602  0.0835 -0.0870  0.1231
    1GLY     BB 2291   9.371   5.370   5.717  0.1638  0.0495  0.1239
    2PHE     BB 2292   9.397   5.553   5.829  0.1622  0.1257  0.1453
    2PHE    SC1 2293   9.514   5.841   5.823  0.0045 -0.2980  0.1356
    2PHE    SC2 2294   9.749   5.888   5.698 -0.2185  0.0564 -0.1735
    2PHE    SC3 2295   9.642   6.076   5.859 -0.2767 -0.1181 -0.0045
    1GLY     BB 2296   0.916  10.016  14.386 -0.1774 -0.0030  0.3259
    2PHE     BB 2297   0.861   9.893  14.171  0.1241  0.0914  0.3692
    2PHE    SC1 2298   1.048   9.885  13.944  0.1908 -0.0293  0.2686
    2PHE    SC2 2299   1.127   9.764  13.715 -0.1629  0.0366  0.1058
    2PHE    SC3 2300   1.264   9.976  13.810  0.0317 -0.0387 -0.0018
    1GLY     BB 2301   1.639   3.500  14.864  0.2526  0.2061 -0.0140
    2PHE     BB 2302   1.721   3.525  15.173  0.2313 -0.2234  0.2069
    2PHE    SC1 2303   2.030   3.537  15.169 -0.1671 -0.3880  0.1196
    2PHE    SC2 2304   2.248   3.524  15.010 -0.0875 -0.0460  0.1918
    2PHE    SC3 2305   2.272   3.479  15.275 -0.0973  0.0222  0.2046
    1GLY     BB 2306  10.441  16.001   0.965  0.1988  0.1292 -0.0521
    2PHE     BB 2307  10.146  16.272   1.033 -0.1480 -0.0406 -0.2539
    2PHE    SC1 2308   9.949  16.455   0.835 -0.1594  0.6197 -0.0346
    2PHE    SC2 2309   9.749  16.600   0.727 -0.3995  0.1657 -0.2267
    2PHE    SC3 2310   9.843  16.382   0.598 -0.2665 -0.0359  0.1941
    1GLY     BB 2311   6.820   3.571   2.332  0.1628  0.0778 -0.3636
    2PHE     BB 2312   7.094   3.615   2.438 -0.0282 -0.0356 -0.2237
    2PHE    SC1 2313   7.355   3.507   2.516 -0.0742  0.0736  0.1352
    2PHE    SC2 2314   7.452   3.261   2.572  0.2659  0.1290 -0.1771
    2PHE    SC3 2315   7.605   3.479   2.616 -0.0591  0.2984  0.1645
    1GLY     BB 2316  10.319   0.429   4.520 -0.3007 -0.1327  0.1277
    2PHE     BB 2317  10.543   0.501   4.303  0.4010 -0.1956 -0.4072
    2PHE    SC1 2318  10.741   0.300   4.369  0.3053  0.2965 -0.0109
    2PHE    SC2 2319  10.931   0.114   4.323  0.1355  0.0105  0.3898
    2PHE    SC3 2320  10.856   0.172   4.576 -0.2006  0.2326  0.2471
    1GLY     BB 2321   0.574   1.815  13.769 -0.1035 -0.0500 -0.2627
    2PHE     BB 2322   0.725   1.852  13.594 -0.0472  0.2482  0.0384
    2PHE    SC1 2323   0.987   1.703  13.452  0.0906 -0.0151  0.0252
    2PHE    SC2 2324   1.108   1.557  13.261 -0.0799  0.0015 -0.0978
    2PHE    SC3 2325   1.227   1.780  13.356  0.0498 -0.0597 -0.1145
    1GLY     BB 2326  14.587  12.335  14.013 -0.0583  0.2706 -0.2648
    2PHE     BB 2327  14.385  12.412  14.011 -0.0742  0.0744  0.1263
    2PHE    SC1 2328  14.106  12.263  13.937  0.1713 -0.2109 -0.1633
    2PHE    SC2 2329  13.915  12.081  13.992 -0.1964  0.2114  0.0234
    2PHE    SC3 2330  13.891  12.240  13.775  0.0847  0.0941 -0.0989
    1GLY     BB 2331   3.077   3.772   1.904  0.2107 -0.1288  0.1249
    2PHE     BB 2332   2.837   3.657   2.158  0.2692  0.1193  0.0726
    2PHE    SC1 2333   2.542   3.692   2.049  0.1906  0.1794 -0.0578
    2PHE    SC2 2334   2.296   3.586   2.082  0.2891 -0.0917 -0.1645
    2PHE    SC3 2335   2.331   3.854   2.094  0.0283 -0.0638  0.0745
    1GLY     BB 2336  15.274  12.785   5.348 -0.1456  0.2730  0.2993
    2PHE     BB 2337  15.379  12.893   5.061 -0.3407  0.1827  0.1050
    2PHE    SC1 2338  15.283  13.123   4.908  0.0191  0.0107  0.0294
    2PHE    SC2 2339  15.313  13.256   4.674  0.1268 -0.2160 -0.0893
    2PHE    SC3 2340  15.153  13.356   4.867  0.3586  0.1854 -0.0948
    1GLY     BB 2341   5.164   8.133  10.617 -0.1451  0.3456  0.0771
    2PHE     BB 2342   5.123   7.922  10.405  0.0861  0.2334 -0.1155
    2PHE    SC1 2343   4.873   7.806  10.259  0.1586  0.2037 -0.2132
    2PHE    SC2 2344   4.631   7.840  10.144 -0.1591  0.1123  0.3904
    2PHE    SC3 2345   4.730   7.592  10.180  0.0272  0.1490  0.1534
    1GLY     BB 2346   6.815   1.100   6.190  0.0748  0.1850  0.1044
    2PHE     BB 2347   6.854   1.210   6.428 -0.1300  0.4410 -0.1231
    2PHE    SC1 2348   6.891   1.021   6.685  0.0538  0.0769 -0.4044
    2PHE    SC2 2349   6.843   0.903   6.923  0.4127  0.2032 -0.2626
    2PHE    SC3 2350   7.034   0.804   6.760  0.3583  0.2814 -0.3744
    1GLY     BB 2351   0.931  12.094  13.076  0.2547 -0.0836  0.0209
    2PHE     BB 2352   0.676  12.117  12.988  0.1849  0.0764 -0.3370
    2PHE    SC1 2353   0.495  11.929  12.858  0.2923  0.0187 -0.0055
    2PHE    SC2 2354   0.378  11.706  12.760 -0.1101  0.1303  0.2010
    2PHE    SC3 2355   0.292  11.950  12.682  0.3881  0.2252 -0.0951
    1GLY     BB 2356   1.897   1.809   9.851  0.1769  0.1288  0.2231
    2PHE     BB 2357   1.807   1.975   9.638 -0.0644  0.0063  0.0018
    2PHE    SC1 2358   1.578   2.184   9.709 -0.0431 -0.0157  0.0855
    2PHE    SC2 2359   1.314   2.190   9.654 -0.0771 -0.0246  0.2425
    2PHE    SC3 2360   1.451   2.420   9.680  0.0022 -0.0188 -0.1599
    1GLY     BB 2361   8.347   8.785  11.555  0.1804  0.1035  0.4261
    2PHE     BB 2362   8.303   8.834  11.283 -0.0166 -0.2332 -0.2544
    2PHE    SC1 2363   8.080   8.906  11.095  0.0225  0.1639 -0.0901
    2PHE    SC2 2364   7.876   9.038  10.977 -0.0729  0.0037 -0.1075
    2PHE    SC3 2365   8.102   8.988  10.838 -0.0465  0.1247 -0.1089
    1GLY     BB 2366   6.868   9.745  11.676 -0.3483 -0.3806 -0.0021
    2PHE     BB 2367   6.686   9.627  11.664 -0.3559  0.0477  0.0658
    2PHE    SC1 2368   6.486   9.543  11.461  0.0230  0.1510  0.0911
    2PHE    SC2 2369   6.310   9.624  11.273  0.1562  0.0079 -0.0991
    2PHE    SC3 2370   6.245   9.424  11.443  0.2700 -0.3193 -0.4256
    1GLY     BB 2371   5.071   0.466   8.713  0.1597  0.0709 -0.1244
    2PHE     BB 2372   4.949   0.300   8.872 -0.1488  0.0867  0.0060
    2PHE    SC1 2373   4.687   0.137   8.860  0.0379  0.0173 -0.2003
    2PHE    SC2 2374   4.426   0.179   8.804 -0.0800  0.1357  0.3777
    2PHE    SC3 2375   4.503  -0.049   8.926  0.0959  0.0900  0.1878
    1GLY     BB 2376   2.261  11.284  16.348  0.0184 -0.2530  0.0002
    2PHE     BB 2377   2.335  11.375  16.034 -0.1328  0.3221  0.0025
    2PHE    SC1 2378   2.248  11.612  15.880 -0.0208 -0.1135  0.1233
    2PHE    SC2 2379   2.141  11.857  15.919 -0.0704 -0.1266  0.0713
    2PHE    SC3 2380   2.272  11.802  15.690 -0.1249 -0.1717  0.0508
    1GLY     BB 2381   7.326   0.383   5.904  0.1161 -0.0617  0.0321
    2PHE     BB 2382   7.339   0.234   6.187 -0.0037 -0.0828 -0.0456
    2PHE    SC1 2383   7.065   0.186   6.352 -0.1565  0.5104  0.1256
    2PHE    SC2 2384   6.877   0.270   6.526 -0.3838  0.0716  0.1071
    2PHE    SC3 2385   6.804   0.145   6.299 -0.0728  0.1508 -0.0422
    1GLY     BB 2386   7.110   7.979   7.816  0.0560 -0.0177 -0.0166
    2PHE     BB 2387   6.820   8.080   7.729 -0.4380  0.0692 -0.4846
    2PHE    SC1 2388   6.652   7.825   7.808  0.3402  0.0818  0.1641
    2PHE    SC2 2389   6.549   7.595   7.711 -0.0121  0.1832  0.2825
    2PHE    SC3 2390   6.742   7.588   7.899  0.1231 -0.0121  0.1400
    1GLY     BB 2391  14.694  10.003  15.023 -0.1463  0.0784  0.0710
    2PHE     BB 2392  14.749  10.228  15.119  0.2590  0.2896  0.0201
    2PHE    SC1 2393  14.770  10.530  15.118 -0.1664  0.0240 -0.0338
    2PHE    SC2 2394  14.692  10.745  15.262  0.1022  0.0805  0.0343
    2PHE    SC3 2395  14.882  10.772  15.073  0.4277 -0.1628  0.3118
    1GLY     BB 2396  11.116  11.335   4.369  0.1582  0.0348 -0.2478
    2PHE     BB 2397  11.268  11.112   4.438  0.1408 -0.0542 -0.1323
    2PHE    SC1 2398  11.465  11.132   4.670 -0.1564  0.0341 -0.1046
    2PHE    SC2 2399  11.550  11.348   4.808 -0.1098  0.0196 -0.1105
    2PHE    SC3 2400  11.719  11.142   4.760 -0.0889  0.0779 -0.2950
    1GLY     BB 2401   1.592   4.699   0.820 -0.1494 -0.2826 -0.0594
    2PHE     BB 2402   1.890   4.904   0.829 -0.0779  0.0200 -0.1522
    2PHE    SC1 2403   1.861   5.157   0.686  0.2294  0.3698  0.2335
    2PHE    SC2 2404   1.636   5.300   0.643 -0.0611 -0.1531 -0.0882
    2PHE    SC3 2405   1.876   5.401   0.571 -0.1757  0.4163  0.2661
    1GLY     BB 2406   4.656   5.459  10.994  0.3521  0.1009 -0.1758
    2PHE     BB 2407   4.717   5.157  11.020  0.0996 -0.2381 -0.1312
    2PHE    SC1 2408   4.742   5.012  11.287  0.2601  0.1838  0.1436
    2PHE    SC2 2409   4.693   5.008  11.552 -0.1728 -0.0784  0.0695
    2PHE    SC3 2410   4.814   4.798  11.434 -0.2829 -0.1100  0.0108
    1GLY     BB 2411  14.362   1.038  11.946 -0.1796  0.1670  0.2847
    2PHE     BB 2412  14.625   1.216  12.031  0.1003  0.3196 -0.1720
    2PHE    SC1 2413  14.688   1.438  11.841 -0.0153 -0.0065 -0.0917
    2PHE    SC2 2414  14.732   1.525  11.589  0.1525  0.0761 -0.0357
    2PHE    SC3 2415  14.603   1.683  11.766 -0.0737 -0.0298 -0.1018
    1GLY     BB 2416   8.090   9.806   3.205  0.1978 -0.3798 -0.1041
    2PHE     BB 2417   8.005   9.771   2.997  0.2670  0.2803  0.0945
    2PHE    SC1 2418   8.084   9.822   2.711  0.0873  0.3090  0.2125
    2PHE    SC2 2419   8.048   9.972   2.490  0.1256 -0.1174 -0.0963
    2PHE    SC3 2420   8.197   9.748   2.478  0.3210 -0.0307  0.4241
    1GLY     BB 2421   8.916  15.201   9.863 -0.2557 -0.2881  0.2970
    2PHE     BB 2422   9.295  15.079   9.764 -0.0764  0.1455  0.1198
    2PHE    SC1 2423   9.280  14.793   9.833  0.1185  0.1441  0.2272
    2PHE    SC2 2424   9.370  14.622  10.022 -0.0504 -0.0231  0.1602
    2PHE    SC3 2425   9.348  14.541   9.766 -0.0600  0.1248  0.1130
    1GLY     BB 2426  13.818   0.247  13.535  0.1205 -0.2570 -0.2293
    2PHE     BB 2427  13.819   0.345  13.726  0.0564  0.2990  0.4742
    2PHE    SC1 2428  13.591   0.535  13.811  0.0787 -0.0937  0.2506
    2PHE    SC2 2429  13.480   0.780  13.787  0.0970 -0.0872  0.2323
    2PHE    SC3 2430  13.340   0.580  13.901 -0.0323 -0.1451 -0.0210
    1GLY     BB 2431   2.768   9.169   9.233  0.0413 -0.1995  0.0854
    2PHE     BB 2432   2.617   9.011   9.100  0.0996 -0.1288  0.2433
    2PHE    SC1 2433   2.331   8.923   9.194  0.0653 -0.0415 -0.0370
    2PHE    SC2 2434   2.129   8.744   9.170  0.0903 -0.0733 -0.0114
    2PHE    SC3 2435   2.090   8.976   9.304  0.0841 -0.1000  0.0330
    1GLY     BB 2436  15.305   9.142   4.019 -0.0253 -0.0257 -0.0123
    2PHE     BB 2437  15.460   9.230   3.975  0.0661 -0.0142  0.4700
    2PHE    SC1 2438  15.472   9.592   3.953  0.1340  0.0777  0.0548
    2PHE    SC2 2439  15.641   9.777   3.852  0.1938  0.1377  0.2612
    2PHE    SC3 2440  15.428   9.854   4.000  0.0432  0.0565  0.0903
    1GLY     BB 2441   0.261  10.030   8.202 -0.3921  0.1660  0.0045
    2PHE     BB 2442   0.067  10.116   8.478 -0.0617  0.0819 -0.0984
    2PHE    SC1 2443  -0.044   9.859   8.509  0.0368  0.0884 -0.3878
    2PHE    SC2 2444  -0.121   9.643   8.652  0.1431  0.1087 -0.2987
    2PHE    SC3 2445  -0.117   9.631   8.383  0.0064  0.0484 -0.2990
    1GLY     BB 2446   0.841   7.171   6.121 -0.0984 -0.0526 -0.1702
    2PHE     BB 2447   1.025   7.239   6.470 -0.1230 -0.1712  0.1339
    2PHE    SC1 2448   0.840   7.252   6.741  0.0988 -0.1184  0.2921
    2PHE    SC2 2449   0.753   7.129   6.965 -0.1705 -0.0265  0.2416
    2PHE    SC3 2450   0.599   7.131   6.743 -0.0102  0.0896  0.1288
    1GLY     BB 2451  10.163  15.821  16.002 -0.0768  0.1870 -0.1184
    2PHE     BB 2452   9.867  15.968  15.921 -0.1220 -0.1589  0.3454
    2PHE    SC1 2453   9.937  16.213  15.764 -0.2764  0.1568  0.0873
    2PHE    SC2 2454   9.971  16.252  15.499  0.1056  0.1436  0.1279
    2PHE    SC3 2455   9.973  16.463  15.668 -0.5264  0.1973  0.0932
    1GLY     BB 2456   3.879   1.144   7.033 -0.3853  0.0102 -0.2383
    2PHE     BB 2457   4.256   1.004   7.137  0.0264  0.0217 -0.0221
    2PHE    SC1 2458   4.241   1.197   7.363 -0.5711 -0.1429  0.2655
    2PHE    SC2 2459   4.227   1.307   7.609  0.0784  0.2270  0.1591
    2PHE    SC3 2460   4.270   1.464   7.393 -0.2012 -0.1228 -0.1644
    1GLY     BB 2461   2.380   1.513   9.116 -0.2542  0.3645 -0.2709
    2PHE     BB 2462   2.071   1.240   9.140  0.1683 -0.3062  0.3321
    2PHE    SC1 2463   2.233   1.025   9.240  0.0682  0.1685  0.0483
    2PHE    SC2 2464   2.319   0.814   9.384 -0.4289 -0.3190 -0.3275
    2PHE    SC3 2465   2.404   0.848   9.131 -0.3252 -0.0400 -0.2581
    1GLY     BB 2466   8.267   6.028   9.046  0.0538 -0.0364  0.0532
    2PHE     BB 2467   8.068   5.828   9.047  0.0397 -0.0387  0.2408
    2PHE    SC1 2468   7.872   5.780   9.255 -0.1101  0.2528 -0.3233
    2PHE    SC2 2469   7.827   5.755   9.520  0.1425 -0.2828 -0.3189
    2PHE    SC3 2470   7.625   5.719   9.345  0.0387 -0.2277 -0.2117
    1GLY     BB 2471  11.348   3.240   1.887  0.2073  0.2564 -0.0735
    2PHE     BB 2472  11.480   3.142   1.582  0.2539 -0.2058  0.1536
    2PHE    SC1 2473  11.559   2.886   1.549 -0.0840  0.0273  0.0800
    2PHE    SC2 2474  11.799   2.773   1.599 -0.1398 -0.1526 -0.0453
    2PHE    SC3 2475  11.647   2.681   1.396 -0.3007 -0.0172  0.0114
    1GLY     BB 2476   1.719  11.584  11.259 -0.0185 -0.4170 -0.0010
    2PHE     BB 2477   1.569  11.670  11.397  0.3726  0.0165  0.4242
    2PHE    SC1 2478   1.269  11.651  11.439 -0.2004  0.2149 -0.2525
    2PHE    SC2 2479   1.033  11.545  11.363 -0.1144 -0.2723  0.1104
    2PHE    SC3 2480   1.056  11.665  11.603 -0.0223 -0.1004  0.0177
    1GLY     BB 2481  10.406   8.950   5.642 -0.0801 -0.1866 -0.0048
    2PHE     BB 2482  10.209   9.054   5.639  0.3157  0.0047  0.0474
    2PHE    SC1 2483  10.039   9.268   5.740  0.2168  0.1072  0.1995
    2PHE    SC2 2484   9.772   9.305   5.720  0.2497  0.1820 -0.1890
    2PHE    SC3 2485   9.924   9.485   5.852  0.0798 -0.0126  0.2949
    1GLY     BB 2486   3.837  16.040   5.190  0.1846  0.1873 -0.2160
    2PHE     BB 2487   3.831  15.719   5.291 -0.3087  0.0243 -0.0295
    2PHE    SC1 2488   3.801  15.744   5.620  0.2249  0.4168  0.2091
    2PHE    SC2 2489   3.645  15.675   5.830 -0.1522 -0.2071 -0.2393
    2PHE    SC3 2490   3.907  15.612   5.830 -0.1214 -0.0989  0.0792
    1GLY     BB 2491  13.529  12.607   8.315  0.2801 -0.0460 -0.3057
    2PHE     BB 2492  13.487  12.562   8.002 -0.3731  0.0746 -0.1923
    2PHE    SC1 2493  13.441  12.872   7.947  0.4948  0.1333 -0.0566
    2PHE    SC2 2494  13.471  13.068   7.763  0.2418  0.1990 -0.0313
    2PHE    SC3 2495  13.366  13.125   8.005  0.0278  0.0084 -0.0757
    1GLY     BB 2496   0.197   2.541  13.352  0.1739 -0.1742  0.0250
    2PHE     BB 2497  -0.091   2.610  13.345  0.0188 -0.2907  0.0705
    2PHE    SC1 2498  -0.223   2.589  13.078 -0.1596  0.0454  0.0365
    2PHE    SC2 2499  -0.216   2.674  12.822 -0.2698  0.2671  0.1049
    2PHE    SC3 2500  -0.305   2.426  12.879 -0.1576  0.1829 -0.0784
    1GLY     BB 2501   5.391   5.916   3.560 -0.0483  0.0155 -0.0891
    2PHE     BB 2502   5.290   5.720   3.597 -0.0981  0.0102  0.1301
    2PHE    SC1 2503   5.385   5.483   3.752 -0.0010 -0.1039 -0.1453
    2PHE    SC2 2504   5.375   5.215   3.788  0.2220 -0.0846  0.0873
    2PHE    SC3 2505   5.519   5.369   3.956 -0.1075  0.2135  0.1090
    1GLY     BB 2506   3.405  10.803   0.932  0.1677 -0.2678  0.2796
    2PHE     BB 2507   3.258  10.989   0.973 -0.0194 -0.0598 -0.3977
    2PHE    SC1 2508   3.086  11.186   0.782 -0.1965  0.0541  0.0026
    2PHE    SC2 2509   2.888  11.369   0.801  0.0716  0.3436  0.0972
    2PHE    SC3 2510   3.082  11.399   0.616 -0.1352 -0.1087 -0.2126
    1GLY     BB 2511  10.141   6.104  11.892  0.0747 -0.0854 -0.0814
    2PHE     BB 2512  10.128   6.404  11.888  0.2049  0.1232 -0.2714
    2PHE    SC1 2513  10.353   6.580  11.849  0.1457  0.2710  0.1904
    2PHE    SC2 2514  10.581   6.658  11.726  0.1849 -0.0125  0.0752
    2PHE    SC3 2515  10.454   6.825  11.896  0.3150  0.2591 -0.0896
    1GLY     BB 2516   2.020  11.820   4.329 -0.1075  0.1609 -0.2316
    2PHE     BB 2517   2.376  11.807   4.339 -0.1065 -0.2986  0.1259
    2PHE    SC1 2518   2.657  11.904   4.433 -0.1626  0.0803 -0.0350
    2PHE    SC2 2519   2.920  11.950   4.393 -0.0622 -0.4576 -0.0705
    2PHE    SC3 2520   2.817  11.962   4.642  0.0320 -0.4109 -0.0335
    1GLY     BB 2521  10.935   4.501  12.445  0.1191 -0.0096 -0.0697
    2PHE     BB 2522  10.837   4.434  12.151 -0.0317 -0.1754  0.3082
    2PHE    SC1 2523  10.556   4.313  12.147  0.2569  0.2030  0.0624
    2PHE    SC2 2524  10.314   4.194  12.158  0.4375 -0.2020 -0.1263
    2PHE    SC3 2525  10.413   4.277  11.921  0.4024  0.1531 -0.0233
    1GLY     BB 2526  14.012   6.164   6.748  0.1564 -0.1627  0.2185
    2PHE     BB 2527  13.893   6.004   6.935  0.1532 -0.2673  0.1068
    2PHE    SC1 2528  13.843   6.090   7.259 -0.1699  0.1210 -0.1872
    2PHE    SC2 2529  13.859   5.986   7.508  0.6134  0.0746 -0.2341
    2PHE    SC3 2530  13.842   6.253   7.475  0.1314  0.0642 -0.1385
    1GLY     BB 2531   3.495  10.718   7.363 -0.1786  0.1353  0.1909
    2PHE     BB 2532   3.570  10.568   7.188 -0.4202  0.2854  0.0794
    2PHE    SC1 2533   3.544  10.263   7.118  0.0535 -0.2517 -0.0174
    2PHE    SC2 2534   3.419  10.106   6.937  0.3146 -0.1292 -0.3124
    2PHE    SC3 2535   3.446  10.023   7.193 -0.2311 -0.2209 -0.2731
    1GLY     BB 2536  12.790   5.576   9.266 -0.0301  0.0371 -0.1254
    2PHE     BB 2537  12.881   5.730   9.226  0.2339  0.1039 -0.1375
    2PHE    SC1 2538  13.024   5.865   8.968  0.1509 -0.4094 -0.0812
    2PHE    SC2 2539  13.146   5.906   8.731  0.1741  0.2325  0.0234
    2PHE    SC3 2540  13.276   5.961   8.961  0.0926 -0.2262  0.1906
    1GLY     BB 2541  15.248   9.388   6.389 -0.0522 -0.2764  0.0291
    2PHE     BB 2542  15.146   9.343   6.250  0.0104  0.3509 -0.3134
    2PHE    SC1 2543  15.007   9.480   5.994 -0.3496  0.3057  0.0653
    2PHE    SC2 2544  15.018   9.469   5.724  0.2533  0.0088  0.0853
    2PHE    SC3 2545  14.797   9.564   5.847 -0.1432 -0.1079 -0.5002
    1GLY     BB 2546   3.753   0.341   4.848  0.1201  0.0793  0.1642
    2PHE     BB 2547   3.837   0.222   5.169  0.0494  0.2936 -0.0458
    2PHE    SC1 2548   3.733   0.411   5.392  0.4001 -0.2127 -0.0689
    2PHE    SC2 2549   3.637   0.627   5.523  0.2069 -0.0245 -0.4968
    2PHE    SC3 2550   3.859   0.501   5.613  0.0412  0.0408  0.0423
    1GLY     BB 2551  15.671   9.751   8.917 -0.0804 -0.1451 -0.0995
    2PHE     BB 2552  15.832   9.627   8.744 -0.0498  0.2405  0.1416
    2PHE    SC1 2553  15.919   9.327   8.723 -0.2786  0.1311 -0.1530
    2PHE    SC2 2554  15.867   9.083   8.620 -0.3640  0.1199 -0.0844
    2PHE    SC3 2555  16.114   9.189   8.597 -0.2512 -0.0892  0.1213
    1GLY     BB 2556  16.044   6.321  11.792  0.0321 -0.1311  0.0687
    2PHE     BB 2557  16.069   6.613  11.650  0.2542 -0.1247  0.1068
    2PHE    SC1 2558  15.945   6.795  11.862 -0.0508  0.0301  0.2007
    2PHE    SC2 2559  15.762   6.785  12.060  0.1274  0.2333  0.3802
    2PHE    SC3 2560  16.023   6.826  12.118  0.2444 -0.1151  0.1330
    1GLY     BB 2561  14.071   5.095   2.854  0.1886  0.2300 -0.0879
    2PHE     BB 2562  14.294   5.334   2.852 -0.0733 -0.4562  0.1221
    2PHE    SC1 2563  14.239   5.612   2.939 -0.1727 -0.3001  0.0597
    2PHE    SC2 2564  14.014   5.759   2.917  0.1424  0.1644 -0.2356
    2PHE    SC3 2565  14.229   5.859   3.047  0.2251 -0.2249 -0.0578
    1GLY     BB 2566  14.845  12.457   5.531  0.2062 -0.1350  0.2156
    2PHE     BB 2567  14.876  12.662   5.683 -0.2950 -0.2189 -0.0242
    2PHE    SC1 2568  14.814  12.937   5.566  0.1471  0.0672 -0.0799
    2PHE    SC2 2569  14.661  13.132   5.458  0.2436  0.0595 -0.2349
    2PHE    SC3 2570  14.786  13.173   5.694 -0.1136  0.0116 -0.0296
    1GLY     BB 2571  10.198   9.899   9.767 -0.1256 -0.1889  0.0127
    2PHE     BB 2572  10.497   9.899   9.645  0.0103 -0.0647  0.2171
    2PHE    SC1 2573  10.568  10.176   9.571 -0.2275  0.1080  0.0134
    2PHE    SC2 2574  10.662  10.395   9.444 -0.3870  0.1940  0.0423
    2PHE    SC3 2575  10.396  10.357   9.470 -0.3713 -0.1592 -0.2356
    1GLY     BB 2576   8.016   9.726   7.430 -0.1446 -0.1692 -0.0641
    2PHE     BB 2577   7.850   9.827   7.502  0.1237 -0.1974 -0.4421
    2PHE    SC1 2578   7.661   9.971   7.686 -0.0452  0.0226  0.1015
    2PHE    SC2 2579   7.450  10.138   7.667 -0.1655 -0.1328  0.0407
    2PHE    SC3 2580   7.443   9.931   7.840 -0.0200 -0.0801  0.1115
    1GLY     BB 2581   1.996   9.939  13.068 -0.5179 -0.0608 -0.0146
    2PHE     BB 2582   1.964   9.757  12.810 -0.1991 -0.0788 -0.0396
    2PHE    SC1 2583   1.696   9.818  12.659  0.0791 -0.4312 -0.2140
    2PHE    SC2 2584   1.464   9.957  12.668  0.3336  0.0073 -0.1080
    2PHE    SC3 2585   1.534   9.824  12.443 -0.1516 -0.3865 -0.0442
    1GLY     BB 2586   9.956   0.149   4.774  0.1566 -0.2365 -0.0078
    2PHE     BB 2587   9.961   0.056   4.557  0.1005 -0.4249 -0.0671
    2PHE    SC1 2588  10.187  -0.008   4.389 -0.3889  0.0224 -0.1453
    2PHE    SC2 2589  10.324  -0.197   4.253 -0.0698 -0.0939  0.3153
    2PHE    SC3 2590  10.455  -0.029   4.420 -0.3609  0.4774 -0.0010
    1GLY     BB 2591   2.552  15.251   0.094 -0.2459 -0.0601  0.0260
    2PHE     BB 2592   2.449  15.525  -0.094 -0.0238 -0.1983  0.3829
    2PHE    SC1 2593   2.632  15.467  -0.332  0.1422  0.1019  0.0024
    2PHE    SC2 2594   2.770  15.274  -0.461 -0.0327 -0.2964  0.3840
    2PHE    SC3 2595   2.738  15.517  -0.575 -0.1454 -0.6084 -0.2976
    1GLY     BB 2596   0.779   3.958   1.961 -0.1742  0.0257 -0.1474
    2PHE     BB 2597   0.348   3.799   2.049  0.3227 -0.0001  0.1047
    2PHE    SC1 2598   0.334   4.017   2.242 -0.2615  0.1096 -0.1515
    2PHE    SC2 2599   0.529   4.110   2.403 -0.0182 -0.2033 -0.2556
    2PHE    SC3 2600   0.330   4.274   2.324 -0.2194 -0.0697  0.4580
    1GLY     BB 2601  10.925  12.573   6.862 -0.1170  0.2465  0.2903
    2PHE     BB 2602  10.773  12.751   6.975  0.0738 -0.0969 -0.1006
    2PHE    SC1 2603  10.639  12.641   7.242 -0.3432 -0.1029  0.0867
    2PHE    SC2 2604  10.680  12.651   7.509  0.1038 -0.6822  0.0608
    2PHE    SC3 2605  10.458  12.532   7.411 -0.3454  0.0155  0.1614
    1GLY     BB 2606  12.525   1.088   7.292  0.2058 -0.2794  0.0886
    2PHE     BB 2607  12.425   1.253   7.447  0.4798 -0.1277 -0.1250
    2PHE    SC1 2608  12.432   1.376   7.699 -0.4067  0.0058 -0.1128
    2PHE    SC2 2609  12.425   1.312   7.961 -0.0163  0.3499 -0.0094
    2PHE    SC3 2610  12.324   1.548   7.877 -0.3967  0.1226 -0.2182
    1GLY     BB 2611  16.214  14.693   8.213 -0.0611  0.1017  0.1815
    2PHE     BB 2612  16.142  14.747   8.007 -0.1475 -0.0971  0.0402
    2PHE    SC1 2613  15.969  14.961   7.876 -0.1452 -0.2086 -0.1114
    2PHE    SC2 2614  15.901  15.221   7.851 -0.1176 -0.1654  0.2208
    2PHE    SC3 2615  15.721  15.043   7.947 -0.1638 -0.2884 -0.0826
    1GLY     BB 2616   7.656   2.312   4.681  0.0311 -0.1147  0.0473
    2PHE     BB 2617   7.871   2.134   4.544 -0.0821 -0.1523  0.1954
    2PHE    SC1 2618   8.097   2.146   4.761  0.1937 -0.1674 -0.1560
    2PHE    SC2 2619   8.238   1.936   4.857 -0.3161 -0.3504  0.2427
    2PHE    SC3 2620   8.169   2.139   5.021 -0.5006 -0.2572  0.0555
    1GLY     BB 2621   6.725  13.099  14.650 -0.5378 -0.2587 -0.0626
    2PHE     BB 2622   6.704  13.160  14.827 -0.1791 -0.0668 -0.4027
    2PHE    SC1 2623   6.491  13.202  15.082  0.0713  0.1591  0.1769
    2PHE    SC2 2624   6.521  13.278  15.339 -0.1087  0.0370  0.2353
    2PHE    SC3 2625   6.274  13.266  15.229 -0.0319  0.1030  0.0518
    1GLY     BB 2626  10.813  12.252  10.193  0.2465  0.0815  0.0908
    2PHE     BB 2627  10.582  12.127  10.042 -0.1644  0.0009 -0.0803
    2PHE    SC1 2628  10.646  12.079   9.739 -0.2029 -0.3172  0.1146
    2PHE    SC2 2629  10.791  12.041   9.515 -0.1049  0.1662  0.0839
    2PHE    SC3 2630  10.522  12.032   9.504 -0.0969 -0.0451 -0.0008
    1GLY     BB 2631   7.847   7.567   1.312 -0.0375  0.1544  0.0506
    2PHE     BB 2632   7.619   7.736   1.259 -0.0252 -0.0728  0.0884
    2PHE    SC1 2633   7.428   7.523   1.173  0.0903  0.0009  0.1033
    2PHE    SC2 2634   7.328   7.437   0.938  0.3481 -0.1063  0.0295
    2PHE    SC3 2635   7.321   7.276   1.154 -0.0872  0.0716  0.1594
    1GLY     BB 2636   8.639   6.150   7.824 -0.2934  0.1508 -0.0997
    2PHE     BB 2637   8.485   5.928   7.804 -0.2355 -0.0848 -0.0922
    2PHE    SC1 2638   8.608   5.686   7.942  0.0407 -0.0449  0.1960
    2PHE    SC2 2639   8.637   5.442   8.053  0.1982  0.0184  0.2984
    2PHE    SC3 2640   8.541   5.646   8.201 -0.0252 -0.0018  0.1858
    1GLY     BB 2641   9.695  11.852   5.304  0.4499  0.0333  0.2668
    2PHE     BB 2642   9.955  11.979   5.225  0.0847  0.1084  0.0332
    2PHE    SC1 2643  10.110  12.074   5.458 -0.0939  0.1079  0.0197
    2PHE    SC2 2644  10.131  12.294   5.613  0.1542 -0.0997  0.2922
    2PHE    SC3 2645  10.301  12.088   5.648 -0.0277 -0.3089 -0.0079
    1GLY     BB 2646  12.746  12.296  14.042  0.3042  0.1266  0.2654
    2PHE     BB 2647  12.942  12.386  14.201 -0.0140 -0.0608  0.1611
    2PHE    SC1 2648  13.223  12.320  14.171 -0.0217  0.0550  0.3208
    2PHE    SC2 2649  13.458  12.328  14.037 -0.1460 -0.1625  0.0809
    2PHE    SC3 2650  13.442  12.198  14.274 -0.0302 -0.1658  0.0874
    1GLY     BB 2651   0.384  12.540  10.018 -0.1012  0.0335 -0.3742
    2PHE     BB 2652   0.470  12.640  10.231  0.2106  0.3124 -0.1391
    2PHE    SC1 2653   0.795  12.604  10.179  0.0863  0.1002 -0.0239
    2PHE    SC2 2654   0.963  12.544  10.381  0.0530 -0.1457 -0.0661
    2PHE    SC3 2655   1.060  12.585  10.132  0.0499 -0.3337 -0.1001
    1GLY     BB 2656   5.499  11.044   9.011  0.1130  0.2059 -0.1570
    2PHE     BB 2657   5.766  10.852   8.944 -0.1240 -0.0883 -0.3232
    2PHE    SC1 2658   5.985  10.950   8.789  0.0737 -0.4131 -0.0651
    2PHE    SC2 2659   6.202  11.107   8.826 -0.1001 -0.1916  0.0379
    2PHE    SC3 2660   6.146  11.010   8.581 -0.0789  0.0451 -0.0630
    1GLY     BB 2661  15.847  13.274  16.161  0.0773 -0.1583 -0.2440
    2PHE     BB 2662  15.552  13.666  16.232  0.4292  0.0293  0.2888
    2PHE    SC1 2663  15.556  13.882  16.446  0.1142  0.3475  0.0458
    2PHE    SC2 2664  15.501  14.097  16.600 -0.0791  0.0536  0.4037
    2PHE    SC3 2665  15.664  13.903  16.692  0.0800  0.0325  0.0914
    1GLY     BB 2666  14.670   8.771   9.794 -0.3737 -0.0157 -0.1552
    2PHE     BB 2667  14.963   8.903   9.778 -0.2224  0.2067 -0.3570
    2PHE    SC1 2668  15.143   8.849  10.065  0.0671 -0.1718  0.0370
    2PHE    SC2 2669  15.362   8.818  10.219  0.1426 -0.1097 -0.0569
    2PHE    SC3 2670  15.326   9.047  10.080 -0.0548 -0.0602  0.0718
    1GLY     BB 2671   8.642   7.701   7.016  0.0733 -0.0458  0.0275
    2PHE     BB 2672   8.606   7.818   7.211  0.3341  0.0483 -0.0263
    2PHE    SC1 2673   8.591   8.120   7.227 -0.0358 -0.1452  0.3492
    2PHE    SC2 2674   8.777   8.287   7.329  0.1342 -0.1938  0.1251
    2PHE    SC3 2675   8.516   8.358   7.331  0.1903  0.0180  0.1470
    1GLY     BB 2676  13.266   8.622   7.026 -0.3319  0.2437 -0.0071
    2PHE     BB 2677  13.058   8.600   7.110 -0.1388 -0.1923  0.3618
    2PHE    SC1 2678  12.983   8.716   7.393  0.0158 -0.1602  0.0913
    2PHE    SC2 2679  13.044   8.754   7.653  0.0158 -0.3412  0.1192
    2PHE    SC3 2680  12.880   8.927   7.526  0.2625 -0.0756  0.1520
    1GLY     BB 2681   2.309   4.965   7.689 -0.2946 -0.2218 -0.1116
    2PHE     BB 2682   2.096   4.839   7.913 -0.4672  0.2484 -0.1433
    2PHE    SC1 2683   1.906   5.072   7.927  0.0702  0.2348  0.0474
    2PHE    SC2 2684   1.882   5.213   7.697 -0.1093  0.2844  0.0951
    2PHE    SC3 2685   1.742   5.287   7.917 -0.0473  0.1535  0.1802
    1GLY     BB 2686   3.957  15.722   4.481 -0.0026  0.1557  0.0516
    2PHE     BB 2687   3.876  15.411   4.281  0.1502 -0.2546 -0.2007
    2PHE    SC1 2688   3.881  15.486   4.006  0.2847  0.2143  0.0940
    2PHE    SC2 2689   3.893  15.450   3.738  0.0814  0.1194  0.0961
    2PHE    SC3 2690   3.838  15.694   3.840  0.1757  0.1591  0.0518
    1GLY     BB 2691  13.704  15.925  14.124 -0.1436 -0.0811 -0.1643
    2PHE     BB 2692  13.765  15.715  13.924  0.0049  0.0527 -0.1353
    2PHE    SC1 2693  13.910  15.787  13.663  0.0984  0.1120 -0.0332
    2PHE    SC2 2694  13.966  15.838  13.404  0.2785  0.2754  0.0362
    2PHE    SC3 2695  14.165  15.829  13.586  0.1720  0.0020  0.1446
    1GLY     BB 2696   9.267  14.528   5.661 -0.1064 -0.3234  0.1160
    2PHE     BB 2697   9.215  14.533   5.871  0.1738  0.0370  0.0464
    2PHE    SC1 2698   9.268  14.787   6.079  0.0666  0.2145 -0.1256
    2PHE    SC2 2699   9.482  14.773   6.243  0.0147 -0.0771 -0.0775
    2PHE    SC3 2700   9.355  15.009   6.206  0.0323 -0.0024  0.2938
    1GLY     BB 2701   5.024   1.799  14.775  0.0705 -0.1049  0.1311
    2PHE     BB 2702   4.937   1.863  15.069  0.1362 -0.0617  0.0102
    2PHE    SC1 2703   4.782   1.672  15.199 -0.1055 -0.0633 -0.1730
    2PHE    SC2 2704   4.552   1.554  15.277 -0.0813  0.0182  0.0295
    2PHE    SC3 2705   4.771   1.404  15.227 -0.1991 -0.0675 -0.2473
    1GLY     BB 2706  13.597   9.276   6.056  0.1355  0.0798 -0.0712
    2PHE     BB 2707  13.581   8.976   6.090 -0.0065  0.1608  0.1935
    2PHE    SC1 2708  13.411   8.816   5.900  0.0681  0.0291  0.1972
    2PHE    SC2 2709  13.478   8.649   5.698  0.1874  0.3516 -0.0382
    2PHE    SC3 2710  13.221   8.723   5.732  0.1283  0.0969  0.0901
    1GLY     BB 2711   0.466   8.650  11.636 -0.4234 -0.2530 -0.1686
    2PHE     BB 2712   0.273   8.510  11.468  0.0854  0.0371  0.0160
    2PHE    SC1 2713   0.142   8.263  11.655  0.2489 -0.2310 -0.2789
    2PHE    SC2 2714   0.002   8.032  11.643 -0.0962 -0.0450 -0.0042
    2PHE    SC3 2715   0.108   8.114  11.877 -0.0664  0.1279 -0.0763
    1GLY     BB 2716   0.017   5.834  15.336  0.0137  0.1258 -0.1644
    2PHE     BB 2717   0.001   6.152  15.313  0.1487 -0.0395 -0.1257
    2PHE    SC1 2718   0.060   6.199  15.615  0.1936 -0.1088 -0.0432
    2PHE    SC2 2719   0.257   6.356  15.712 -0.0330  0.2730 -0.1793
    2PHE    SC3 2720   0.087   6.232  15.882  0.2334  0.0527 -0.0661
    1GLY     BB 2721  13.134   3.102   7.389 -0.1232 -0.2891  0.0181
    2PHE     BB 2722  12.850   3.136   7.460 -0.0714  0.0457 -0.1895
    2PHE    SC1 2723  12.853   3.322   7.698  0.2272 -0.1234  0.2332
    2PHE    SC2 2724  12.726   3.551   7.767  0.2370 -0.0032 -0.1232
    2PHE    SC3 2725  12.802   3.375   7.958 -0.3424 -0.0179  0.1152
    1GLY     BB 2726   6.391   2.558   0.779 -0.0896 -0.1139  0.3030
    2PHE     BB 2727   6.619   2.408   0.850  0.0265 -0.0156 -0.1773
    2PHE    SC1 2728   6.947   2.489   0.900  0.0647 -0.1269  0.0522
    2PHE    SC2 2729   7.165   2.505   0.741  0.1476 -0.2488  0.1513
    2PHE    SC3 2730   7.180   2.581   1.000  0.0614 -0.2202  0.1482
    1GLY     BB 2731   0.214   0.528   3.150  0.1820  0.0736 -0.2011
    2PHE     BB 2732   0.346   0.837   3.327  0.1574 -0.4350 -0.4152
    2PHE    SC1 2733   0.089   1.028   3.365  0.1500  0.1366  0.0824
    2PHE    SC2 2734  -0.029   1.231   3.232  0.0108  0.0096  0.0094
    2PHE    SC3 2735  -0.180   1.046   3.358  0.1342 -0.0909  0.0122
    1GLY     BB 2736   2.317   8.100   2.357 -0.1905 -0.0819 -0.0322
    2PHE     BB 2737   2.435   7.952   2.263  0.3003 -0.3044  0.0535
    2PHE    SC1 2738   2.469   7.733   2.093  0.3900 -0.0708  0.0518
    2PHE    SC2 2739   2.513   7.700   1.829  0.0255 -0.0530 -0.0164
    2PHE    SC3 2740   2.397   7.503   1.972 -0.1272  0.0810  0.0472
    1GLY     BB 2741   5.107  13.992   3.125  0.2101  0.1275 -0.1094
    2PHE     BB 2742   5.013  14.233   2.989  0.0066 -0.3564  0.0253
    2PHE    SC1 2743   4.895  14.503   2.981 -0.0437 -0.1305  0.1129
    2PHE    SC2 2744   4.968  14.742   3.082  0.1848 -0.0565 -0.2084
    2PHE    SC3 2745   4.750  14.723   2.924  0.1927 -0.0523 -0.2199
    1GLY     BB 2746  15.205   1.303   0.885 -0.0500  0.0332  0.4252
    2PHE     BB 2747  15.133   1.260   0.536  0.1157  0.0011 -0.1782
    2PHE    SC1 2748  14.882   1.121   0.476  0.0383  0.0935  0.2455
    2PHE    SC2 2749  14.745   0.938   0.332  0.6074 -0.0369 -0.1633
    2PHE    SC3 2750  14.637   1.181   0.380 -0.0556 -0.3725  0.1715
    1GLY     BB 2751   4.926   0.635   7.612  0.4055  0.1670  0.2486
    2PHE     BB 2752   4.686   0.551   7.700 -0.2306  0.3790 -0.0311
    2PHE    SC1 2753   4.610   0.294   7.840  0.1775  0.2772  0.4279
    2PHE    SC2 2754   4.772   0.093   7.919  0.0204 -0.0431 -0.0240
    2PHE    SC3 2755   4.504   0.059   7.924 -0.0049  0.1162 -0.1983
    1GLY     BB 2756   0.139  12.096  10.114  0.1813  0.1952 -0.2160
    2PHE     BB 2757   0.400  11.943  10.201  0.0486  0.1396  0.0203
    2PHE    SC1 2758   0.623  12.047  10.342 -0.3347 -0.0795  0.2925
    2PHE    SC2 2759   0.702  12.240  10.513  0.0993  0.0261 -0.0100
    2PHE    SC3 2760   0.779  11.985  10.554 -0.0104  0.0081  0.0881
    1GLY     BB 2761  10.044   1.507   9.461  0.1955 -0.1018 -0.0301
    2PHE     BB 2762  10.027   1.497   9.618  0.2776  0.1036 -0.2066
    2PHE    SC1 2763  10.169   1.309   9.837  0.2143 -0.0702 -0.2186
    2PHE    SC2 2764  10.361   1.311  10.027  0.0115  0.0489 -0.0086
    2PHE    SC3 2765  10.234   1.081   9.966 -0.1077  0.0593  0.1943
    1GLY     BB 2766   9.530  15.718   3.676  0.0597  0.0673 -0.0287
    2PHE     BB 2767   9.777  15.485   3.539 -0.2011  0.3825 -0.3178
    2PHE    SC1 2768  10.036  15.601   3.627  0.0223 -0.3410 -0.1985
    2PHE    SC2 2769  10.151  15.713   3.844 -0.3485  0.1683 -0.2469
    2PHE    SC3 2770  10.304  15.589   3.659  0.0781  0.4990 -0.1333
    1GLY     BB 2771  15.369   6.246   1.543 -0.2675 -0.3282 -0.1839
    2PHE     BB 2772  15.095   6.123   1.545 -0.0240  0.1024 -0.1594
    2PHE    SC1 2773  14.908   6.335   1.701  0.1987  0.2284  0.4844
    2PHE    SC2 2774  14.772   6.558   1.767 -0.3145  0.0725  0.0258
    2PHE    SC3 2775  14.686   6.317   1.854 -0.0081  0.0112  0.1710
    1GLY     BB 2776   8.355  10.603  10.114  0.1009  0.2210  0.1666
    2PHE     BB 2777   8.176  10.687  10.092 -0.1111 -0.0948  0.0355
    2PHE    SC1 2778   8.025  10.818   9.883 -0.1387  0.0298  0.0706
    2PHE    SC2 2779   7.821  10.995   9.885  0.0051  0.1981  0.1707
    2PHE    SC3 2780   8.022  11.024   9.708 -0.1936 -0.1318 -0.1218
    1GLY     BB 2781   2.224  10.471   9.600 -0.3002 -0.1289  0.0770
    2PHE     BB 2782   2.453  10.495   9.570 -0.0660  0.0191  0.0122
    2PHE    SC1 2783   2.620  10.269   9.390 -0.1721 -0.2162  0.0359
    2PHE    SC2 2784   2.703  10.015   9.430  0.2951 -0.0805 -0.0129
    2PHE    SC3 2785   2.863  10.190   9.302 -0.0563  0.2201 -0.0562
    1GLY     BB 2786  13.940   8.603   6.207 -0.1723  0.5005 -0.1787
    2PHE     BB 2787  13.843   8.267   6.079 -0.0575  0.0093  0.0688
    2PHE    SC1 2788  13.554   8.301   6.094  0.0450  0.0683 -0.0228
    2PHE    SC2 2789  13.384   8.457   6.234 -0.0959 -0.1785  0.0888
    2PHE    SC3 2790  13.311   8.362   5.992  0.0214 -0.0098 -0.0147
    1GLY     BB 2791   0.472  12.578  10.747 -0.0874 -0.0620 -0.1321
    2PHE     BB 2792   0.237  12.582  10.989  0.1538 -0.0695  0.2720
    2PHE    SC1 2793   0.344  12.389  11.173  0.3564 -0.0832 -0.1779
    2PHE    SC2 2794   0.566  12.369  11.326  0.1854 -0.0636  0.0795
    2PHE    SC3 2795   0.360  12.199  11.364 -0.0057  0.1712  0.1207
    1GLY     BB 2796  16.091   7.350   2.705  0.2059  0.1362  0.0390
    2PHE     BB 2797  15.887   7.686   2.838  0.0889 -0.1013 -0.1158
    2PHE    SC1 2798  16.094   7.669   3.085  0.2457 -0.3898  0.3547
    2PHE    SC2 2799  16.321   7.806   3.134  0.0654  0.0213  0.0968
    2PHE    SC3 2800  16.174   7.711   3.339  0.3086  0.0183  0.2745
    1GLY     BB 2801  16.031  11.360  15.874 -0.0354 -0.0355  0.1728
    2PHE     BB 2802  15.811  11.277  15.725  0.2517  0.1535  0.3721
    2PHE    SC1 2803  15.830  11.217  15.404 -0.0876  0.1009 -0.0147
    2PHE    SC2 2804  16.007  11.197  15.201  0.0577 -0.0655  0.1253
    2PHE    SC3 2805  15.805  11.019  15.222 -0.0931  0.0880  0.0000
    1GLY     BB 2806  15.627   7.663  12.338 -0.1662  0.1024  0.1031
    2PHE     BB 2807  15.612   7.837  12.190  0.0147  0.1035  0.2862
    2PHE    SC1 2808  15.822   7.952  11.993 -0.2081 -0.1164 -0.4729
    2PHE    SC2 2809  15.967   7.908  11.770  0.2419 -0.0534 -0.2056
    2PHE    SC3 2810  15.959   8.155  11.879 -0.0488 -0.0632 -0.1974
    1GLY     BB 2811   5.959  11.355   6.117  0.1029  0.3574 -0.0580
    2PHE     BB 2812   5.686  11.314   6.197  0.2442 -0.1323 -0.0785
    2PHE    SC1 2813   5.416  11.305   6.096  0.1836 -0.0743  0.3198
    2PHE    SC2 2814   5.187  11.321   5.954  0.2501  0.4372  0.2514
    2PHE    SC3 2815   5.218  11.127   6.139 -0.0113  0.0234 -0.1193
    1GLY     BB 2816   9.720  11.341  15.123 -0.3245  0.0969  0.2536
    2PHE     BB 2817   9.681  11.202  15.243 -0.0595  0.1464  0.2940
    2PHE    SC1 2818   9.828  11.069  15.472 -0.0999 -0.1455  0.1707
    2PHE    SC2 2819   9.927  11.097  15.722 -0.1174 -0.2403  0.1882
    2PHE    SC3 2820  10.037  10.917  15.552  0.2496  0.1939 -0.0555
    1GLY     BB 2821   1.694  12.586  10.048 -0.1076  0.0856 -0.1696
    2PHE     BB 2822   1.506  12.371   9.969  0.1297 -0.0013 -0.0355
    2PHE    SC1 2823   1.278  12.201  10.166 -0.0541  0.0749  0.0530
    2PHE    SC2 2824   1.215  12.130  10.418 -0.0447 -0.2798 -0.0391
    2PHE    SC3 2825   1.058  12.052  10.213  0.2359 -0.4590 -0.1912
    1GLY     BB 2826   5.383  14.038   2.714  0.0690 -0.4906  0.1503
    2PHE     BB 2827   5.366  14.246   2.459 -0.1908  0.3268 -0.2115
    2PHE    SC1 2828   5.076  14.352   2.480 -0.0154  0.1013 -0.1211
    2PHE    SC2 2829   4.840  14.482   2.470 -0.0356  0.0849  0.0962
    2PHE    SC3 2830   5.068  14.620   2.513 -0.0214  0.0845  0.0227
    1GLY     BB 2831   5.956   3.333   3.861 -0.0019  0.0409 -0.2478
    2PHE     BB 2832   5.643   3.144   3.798 -0.1933 -0.0800  0.0661
    2PHE    SC1 2833   5.723   2.857   3.869  0.2116 -0.0218  0.0733
    2PHE    SC2 2834   5.740   2.741   4.112  0.0721 -0.2554 -0.0242
    2PHE    SC3 2835   5.655   2.597   3.900 -0.1591  0.0417 -0.1398
    1GLY     BB 2836   5.489  16.089   9.408  0.0810 -0.1573  0.0814
    2PHE     BB 2837   5.276  16.018   9.266 -0.0368 -0.1382 -0.1874
    2PHE    SC1 2838   4.957  16.052   9.232 -0.2625 -0.0498 -0.1830
    2PHE    SC2 2839   4.717  16.002   9.119 -0.3694 -0.1831  0.0925
    2PHE    SC3 2840   4.738  16.184   9.316 -0.2634 -0.2458  0.1404
    1GLY     BB 2841  14.060  10.208   6.538 -0.0226 -0.0273  0.3141
    2PHE     BB 2842  13.844  10.002   6.380  0.2722 -0.2440  0.0744
    2PHE    SC1 2843  13.561   9.857   6.400  0.1722 -0.0005 -0.0553
    2PHE    SC2 2844  13.397   9.733   6.225 -0.0600  0.2749 -0.0404
    2PHE    SC3 2845  13.374   9.684   6.490  0.0851  0.0901 -0.0602
    1GLY     BB 2846   2.608  12.129  15.931 -0.1353  0.0459 -0.0359
    2PHE     BB 2847   2.679  12.088  15.743  0.0730 -0.0586 -0.0261
    2PHE    SC1 2848   2.698  12.120  15.442  0.0149  0.1797 -0.1174
    2PHE    SC2 2849   2.815  11.996  15.232  0.1494 -0.1713  0.1567
    2PHE    SC3 2850   2.670  12.220  15.192  0.0554 -0.3075 -0.3279
    1GLY     BB 2851   3.105   1.666  15.467 -0.2742  0.1587  0.1740
    2PHE     BB 2852   2.853   1.527  15.505  0.0265 -0.2226  0.0204
    2PHE    SC1 2853   2.779   1.475  15.809  0.1802 -0.4129 -0.0836
    2PHE    SC2 2854   2.604   1.317  15.942 -0.3016  0.1637  0.0098
    2PHE    SC3 2855   2.703   1.539  16.060  0.1746  0.0760 -0.2010
    1GLY     BB 2856  15.615   7.539   3.769 -0.1729  0.0758  0.1127
    2PHE     BB 2857  15.918   7.832   3.776 -0.0670 -0.3240 -0.0452
    2PHE    SC1 2858  16.199   7.698   3.845 -0.1712 -0.0799 -0.1371
    2PHE    SC2 2859  16.365   7.492   3.897 -0.1455 -0.0611 -0.1438
    2PHE    SC3 2860  16.431   7.674   3.709 -0.1612 -0.0386 -0.1277
    1GLY     BB 2861   0.821   9.351  12.854  0.2485 -0.2766 -0.1154
    2PHE     BB 2862   0.769   9.394  13.057  0.0961  0.1743  0.2591
    2PHE    SC1 2863   0.970   9.449  13.286 -0.0342 -0.2884 -0.0209
    2PHE    SC2 2864   1.084   9.342  13.506  0.1047 -0.2562 -0.0760
    2PHE    SC3 2865   1.230   9.497  13.341 -0.0908  0.0172  0.0005
    1GLY     BB 2866   4.955   2.249   1.522 -0.1146 -0.0698 -0.1447
    2PHE     BB 2867   5.040   2.543   1.387 -0.0321  0.0674 -0.1116
    2PHE    SC1 2868   4.880   2.787   1.470  0.2269 -0.0512  0.1299
    2PHE    SC2 2869   4.711   2.863   1.667  0.1257  0.0125  0.0197
    2PHE    SC3 2870   4.832   3.049   1.514  0.0468 -0.0413 -0.1096
    1GLY     BB 2871   6.924  16.319   5.905 -0.0699 -0.0590  0.3034
    2PHE     BB 2872   6.883  16.619   5.712  0.0051 -0.2897 -0.1553
    2PHE    SC1 2873   6.824  16.848   5.880  0.1647  0.0226 -0.1340
    2PHE    SC2 2874   6.751  16.979   6.104  0.1473 -0.1670 -0.0267
    2PHE    SC3 2875   6.940  17.083   5.942 -0.1253  0.1717 -0.1385
    1GLY     BB 2876  12.130   5.112   8.652  0.0582 -0.0555  0.0817
    2PHE     BB 2877  12.305   5.011   8.494  0.0462  0.1635 -0.0815
    2PHE    SC1 2878  12.410   5.166   8.258  0.0350  0.0181  0.4264
    2PHE    SC2 2879  12.483   5.355   8.079 -0.2429 -0.4093 -0.1742
    2PHE    SC3 2880  12.643   5.141   8.124 -0.0581 -0.1875  0.2978
    1GLY     BB 2881  15.337  11.853  14.493  0.1227 -0.0190 -0.3049
    2PHE     BB 2882  15.277  11.800  14.800 -0.4106  0.0624 -0.1725
    2PHE    SC1 2883  15.404  11.595  14.965  0.0188  0.0065 -0.1337
    2PHE    SC2 2884  15.411  11.364  15.104  0.1931  0.0856 -0.0071
    2PHE    SC3 2885  15.638  11.505  15.067  0.0846  0.2460 -0.0679
    1GLY     BB 2886  14.016  11.424   9.393 -0.0364 -0.3296 -0.0306
    2PHE     BB 2887  14.101  11.598   9.159  0.3372  0.0374  0.2628
    2PHE    SC1 2888  13.889  11.830   9.158  0.1276  0.0248  0.1965
    2PHE    SC2 2889  13.842  12.021   8.973  0.1566 -0.2284 -0.0796
    2PHE    SC3 2890  13.699  12.017   9.202 -0.0189 -0.0262 -0.1822
    1GLY     BB 2891  14.724   6.730   3.673 -0.0214 -0.0271 -0.1269
    2PHE     BB 2892  14.762   6.559   3.829  0.1470 -0.1170 -0.0553
    2PHE    SC1 2893  14.790   6.324   4.062  0.3101  0.0617  0.1598
    2PHE    SC2 2894  14.997   6.161   4.120  0.2056 -0.1129  0.0553
    2PHE    SC3 2895  14.776   6.159   4.276  0.1135 -0.2385 -0.0743
    1GLY     BB 2896   2.542   7.709   7.035  0.2125  0.0017 -0.2037
    2PHE     BB 2897   2.323   7.726   7.159 -0.1012 -0.1143  0.0365
    2PHE    SC1 2898   2.078   7.932   7.186  0.0075  0.1145  0.0196
    2PHE    SC2 2899   1.829   8.021   7.240  0.0168  0.2093 -0.0900
    2PHE    SC3 2900   1.997   8.171   7.092  0.0594  0.0427 -0.2136
    1GLY     BB 2901  14.192  15.242   1.661 -0.0035 -0.0636 -0.2359
    2PHE     BB 2902  14.395  15.061   1.586  0.0008  0.0203  0.2394
    2PHE    SC1 2903  14.371  15.037   1.273  0.3163  0.3668  0.3025
    2PHE    SC2 2904  14.479  15.148   1.052 -0.0522  0.4005  0.1315
    2PHE    SC3 2905  14.478  14.880   1.081 -0.1099  0.3897  0.0331
    1GLY     BB 2906   0.385   9.854  13.135 -0.4367 -0.3341 -0.0277
    2PHE     BB 2907   0.545   9.870  12.952 -0.1262  0.0468 -0.0864
    2PHE    SC1 2908   0.843   9.886  12.881  0.0861  0.0313 -0.0983
    2PHE    SC2 2909   1.033   9.904  12.690  0.3293 -0.3117  0.1000
    2PHE    SC3 2910   1.086   9.775  12.921 -0.0698 -0.1961  0.2643
    1GLY     BB 2911   9.099   7.713   7.963 -0.0195  0.0119 -0.1576
    2PHE     BB 2912   9.072   7.411   7.977 -0.1916 -0.0776 -0.0060
    2PHE    SC1 2913   9.235   7.302   7.724  0.1223 -0.0587 -0.1456
    2PHE    SC2 2914   9.205   7.303   7.455 -0.1703 -0.1263 -0.1173
    2PHE    SC3 2915   9.390   7.143   7.571 -0.1916 -0.2601 -0.2648
    1GLY     BB 2916  11.841   7.774  15.504  0.0475 -0.2172 -0.1153
    2PHE     BB 2917  11.769   7.992  15.371 -0.0102  0.0393  0.2775
    2PHE    SC1 2918  11.826   8.098  15.075 -0.2429 -0.0904  0.1864
    2PHE    SC2 2919  12.070   8.199  15.016 -0.2839  0.2109  0.5016
    2PHE    SC3 2920  11.890   8.159  14.819 -0.0310  0.1142  0.2838
    1GLY     BB 2921   9.948  13.220   8.496 -0.1447 -0.0722 -0.0964
    2PHE     BB 2922  10.104  13.510   8.527 -0.1417 -0.3761 -0.0097
    2PHE    SC1 2923  10.240  13.565   8.245  0.0274 -0.2602 -0.3265
    2PHE    SC2 2924  10.464  13.489   8.116  0.2980 -0.0161 -0.0174
    2PHE    SC3 2925  10.363  13.736   8.076  0.0729 -0.1289 -0.1633
    1GLY     BB 2926   1.207   9.395   2.755  0.0287 -0.3767  0.4282
    2PHE     BB 2927   1.254   9.636   2.878  0.2716 -0.0034 -0.0991
    2PHE    SC1 2928   1.519   9.694   2.995 -0.2847  0.0430  0.2051
    2PHE    SC2 2929   1.773   9.741   3.073 -0.1155 -0.2037 -0.1635
    2PHE    SC3 2930   1.622   9.943   2.977 -0.0207 -0.0776 -0.0521
    1GLY     BB 2931  10.790  10.566   7.046  0.1279 -0.2787  0.3611
    2PHE     BB 2932  10.843  10.268   7.010 -0.1805  0.0095 -0.0112
    2PHE    SC1 2933  11.126  10.182   6.982 -0.2563 -0.1799 -0.2691
    2PHE    SC2 2934  11.318  10.010   7.062 -0.4138 -0.2353  0.0039
    2PHE    SC3 2935  11.327  10.118   6.814  0.0609 -0.1053  0.0690
    1GLY     BB 2936  13.754   2.703   2.905 -0.3258  0.0579  0.1297
    2PHE     BB 2937  13.704   2.519   2.969 -0.2435 -0.0101 -0.3027
    2PHE    SC1 2938  13.473   2.331   3.087 -0.1709  0.1888  0.5585
    2PHE    SC2 2939  13.381   2.106   3.205  0.0250 -0.1837  0.0365
    2PHE    SC3 2940  13.207   2.294   3.119 -0.1831 -0.3920 -0.0102
    1GLY     BB 2941  14.904   6.512   6.132  0.1226 -0.1073  0.0951
    2PHE     BB 2942  15.017   6.717   6.262  0.0480 -0.0939 -0.2220
    2PHE    SC1 2943  14.812   6.843   6.466  0.2582 -0.0511 -0.1611
    2PHE    SC2 2944  14.734   7.028   6.647  0.1504 -0.3444  0.1014
    2PHE    SC3 2945  14.555   6.851   6.548  0.3212 -0.5325  0.1220
    1GLY     BB 2946   4.066   5.096   7.579  0.1832 -0.1523 -0.1807
    2PHE     BB 2947   3.947   5.052   7.337  0.0248 -0.0927 -0.1466
    2PHE    SC1 2948   3.968   4.812   7.169  0.1787 -0.0142 -0.0738
    2PHE    SC2 2949   3.915   4.563   7.080  0.5193 -0.0430 -0.2121
    2PHE    SC3 2950   4.168   4.656   7.077  0.4203  0.2470 -0.0048
    1GLY     BB 2951   0.023   2.013  10.175 -0.2207 -0.1255 -0.0241
    2PHE     BB 2952   0.152   1.998   9.915 -0.0074  0.0719 -0.2393
    2PHE    SC1 2953   0.297   1.821   9.711  0.1013  0.1461  0.0948
    2PHE    SC2 2954   0.183   1.684   9.508  0.0571 -0.0425  0.2438
    2PHE    SC3 2955   0.407   1.829   9.465  0.1728 -0.2569  0.1067
    1GLY     BB 2956  13.842   8.319   5.575 -0.0456  0.1325 -0.2394
    2PHE     BB 2957  13.535   8.070   5.588  0.0662 -0.3180  0.1164
    2PHE    SC1 2958  13.389   8.301   5.463 -0.0413  0.1186 -0.1566
    2PHE    SC2 2959  13.304   8.495   5.297 -0.2657  0.2434  0.0968
    2PHE    SC3 2960  13.125   8.348   5.435 -0.0823  0.2150  0.3096
    1GLY     BB 2961  12.825   7.492   9.506  0.0725 -0.3226  0.0014
    2PHE     BB 2962  12.868   7.248   9.441 -0.0131  0.2656  0.1802
    2PHE    SC1 2963  12.786   6.938   9.555  0.0418 -0.4145  0.0321
    2PHE    SC2 2964  12.807   6.671   9.588 -0.2023 -0.4337  0.0521
    2PHE    SC3 2965  12.564   6.785   9.566 -0.0951 -0.2349 -0.1522
    1GLY     BB 2966   0.064  15.223   9.634 -0.1386 -0.1547 -0.0052
    2PHE     BB 2967  -0.042  15.383   9.538 -0.3225  0.3311 -0.3662
    2PHE    SC1 2968   0.124  15.579   9.350 -0.1816 -0.0149  0.0919
    2PHE    SC2 2969   0.286  15.777   9.265 -0.1686 -0.0177  0.1105
    2PHE    SC3 2970   0.156  15.624   9.086 -0.0027 -0.1389  0.0911
    1GLY     BB 2971   6.732   3.352   3.285 -0.2476  0.0938 -0.1188
    2PHE     BB 2972   7.015   3.334   3.277  0.0809  0.0826  0.0774
    2PHE    SC1 2973   7.188   3.453   3.070 -0.0404 -0.1180 -0.2390
    2PHE    SC2 2974   7.455   3.468   3.033 -0.0485 -0.0482 -0.2689
    2PHE    SC3 2975   7.290   3.644   2.910 -0.0708  0.2372  0.1492
    1GLY     BB 2976   7.960  11.815  11.372 -0.1085  0.1199 -0.1515
    2PHE     BB 2977   8.106  11.553  11.351 -0.0971  0.1995  0.0615
    2PHE    SC1 2978   8.368  11.458  11.463 -0.0710  0.0155  0.1188
    2PHE    SC2 2979   8.636  11.464  11.488 -0.0171 -0.2148 -0.3005
    2PHE    SC3 2980   8.505  11.229  11.503 -0.2492 -0.0644  0.2847
    1GLY     BB 2981   4.141   9.915  13.568  0.2501  0.1425 -0.1884
    2PHE     BB 2982   4.034  10.200  13.584  0.1222 -0.0326  0.3637
    2PHE    SC1 2983   3.863  10.226  13.301 -0.1443 -0.0606  0.1292
    2PHE    SC2 2984   3.706  10.318  13.101 -0.2475 -0.1837  0.1521
    2PHE    SC3 2985   3.670  10.069  13.197 -0.0636 -0.1988  0.1865
    1GLY     BB 2986   5.325  11.124   4.268 -0.1076  0.2301 -0.0055
    2PHE     BB 2987   5.315  11.046   4.034 -0.0677 -0.0910 -0.0104
    2PHE    SC1 2988   5.525  10.971   3.842  0.1735  0.0480  0.1197
    2PHE    SC2 2989   5.517  10.993   3.573 -0.0344 -0.3056  0.0902
    2PHE    SC3 2990   5.695  10.827   3.689  0.0593 -0.1491  0.1747
    1GLY     BB 2991   8.324   5.743  10.172  0.2507 -0.2560  0.0862
    2PHE     BB 2992   8.091   5.768  10.041 -0.4094  0.0352 -0.0743
    2PHE    SC1 2993   7.954   5.521   9.922 -0.0538 -0.1891 -0.0482
    2PHE    SC2 2994   7.869   5.366   9.717 -0.0924 -0.3596  0.0944
    2PHE    SC3 2995   7.690   5.499   9.870 -0.0459  0.1408 -0.2602
    1GLY     BB 2996   4.190  12.990   1.878  0.1129 -0.0691  0.1325
    2PHE     BB 2997   4.182  12.694   1.709 -0.0244  0.1246  0.0341
    2PHE    SC1 2998   4.062  12.547   1.516  0.4054 -0.0156 -0.1023
    2PHE    SC2 2999   4.017  12.336   1.355  0.1154  0.0754 -0.1470
    2PHE    SC3 3000   4.070  12.578   1.248 -0.0553  0.1311 -0.1086
    1GLY     BB 3001  13.320   5.504   2.124 -0.1322  0.0112  0.2315
    2PHE     BB 3002  13.384   5.568   2.274  0.0536 -0.2071 -0.0468
    2PHE    SC1 3003  13.594   5.804   2.298  0.1082  0.1145 -0.0199
    2PHE    SC2 3004  13.576   6.069   2.345 -0.1274  0.0027  0.6065
    2PHE    SC3 3005  13.765   5.922   2.470  0.0353 -0.1254  0.2240
    1GLY     BB 3006   1.556  13.342   8.357 -0.2587  0.1390 -0.0507
    2PHE     BB 3007   1.309  13.285   8.477  0.0305  0.3285 -0.2461
    2PHE    SC1 3008   1.139  12.998   8.406 -0.0541  0.0171  0.2719
    2PHE    SC2 3009   1.073  12.793   8.568  0.2026 -0.1869  0.1265
    2PHE    SC3 3010   1.004  12.785   8.307 -0.2917  0.1824  0.2313
    1GLY     BB 3011   6.673  14.406   7.504  0.1540  0.0546 -0.1111
    2PHE     BB 3012   6.824  14.192   7.385 -0.2377 -0.5030  0.3116
    2PHE    SC1 3013   6.648  13.937   7.442 -0.1442  0.3308  0.0307
    2PHE    SC2 3014   6.690  13.753   7.635  0.1991  0.2138 -0.1465
    2PHE    SC3 3015   6.498  13.712   7.449  0.2009  0.0855 -0.1212
    1GLY     BB 3016   8.451   5.001   9.837  0.2592 -0.0433 -0.1062
    2PHE     BB 3017   8.369   5.221   9.804 -0.2166 -0.1463  0.3024
    2PHE    SC1 3018   8.492   5.507   9.679  0.2509  0.2510  0.2970
    2PHE    SC2 3019   8.503   5.776   9.658  0.2450  0.2206 -0.2176
    2PHE    SC3 3020   8.305   5.639   9.535  0.0130 -0.0002  0.3670
    1GLY     BB 3021   0.690   6.443   3.027  0.0314 -0.0404  0.0442
    2PHE     BB 3022   0.747   6.577   3.143 -0.2097  0.0818 -0.1011
    2PHE    SC1 3023   0.915   6.828   3.143  0.1779  0.1561  0.1026
    2PHE    SC2 3024   1.143   6.969   3.109  0.2203  0.0542 -0.0447
    2PHE    SC3 3025   0.912   7.055   2.998  0.2544 -0.0117 -0.1683
    1GLY     BB 3026  15.543   9.622  10.899  0.1016 -0.0012 -0.0816
    2PHE     BB 3027  15.666   9.601  10.713  0.1481  0.2300  0.0304
    2PHE    SC1 3028  15.923   9.439  10.724  0.0866  0.0497 -0.1565
    2PHE    SC2 3029  16.055   9.249  10.865 -0.0090  0.1986  0.1426
    2PHE    SC3 3030  16.127   9.303  10.610  0.2390 -0.0028  0.1663
    1GLY     BB 3031   1.090   5.073  14.854 -0.1179  0.1571 -0.0891
    2PHE     BB 3032   0.884   5.021  14.771 -0.0902  0.0956 -0.0650
    2PHE    SC1 3033   0.785   4.825  14.533 -0.1215 -0.3222  0.4705
    2PHE    SC2 3034   0.606   4.690  14.382 -0.0559  0.0743  0.0143
    2PHE    SC3 3035   0.868   4.627  14.369 -0.0768 -0.0445  0.1468
    1GLY     BB 3036  14.708   0.950   1.251 -0.2225  0.2093 -0.0714
    2PHE     BB 3037  14.832   1.035   1.074  0.2058 -0.0043  0.0948
    2PHE    SC1 3038  14.943   0.840   0.870 -0.2055  0.0405 -0.1949
    2PHE    SC2 3039  15.061   0.598   0.849 -0.1079  0.0782 -0.0912
    2PHE    SC3 3040  14.893   0.683   0.656 -0.1638 -0.0831 -0.1154
    1GLY     BB 3041   1.934  10.035  13.698 -0.1399 -0.2678 -0.0123
    2PHE     BB 3042   1.875  10.063  13.523  0.0885  0.2166  0.1366
    2PHE    SC1 3043   1.607  10.097  13.334 -0.0120  0.1339  0.1878
    2PHE    SC2 3044   1.490  10.050  13.095  0.3505  0.2261 -0.0145
    2PHE    SC3 3045   1.373   9.963  13.322 -0.0077  0.1508 -0.2210
    1GLY     BB 3046  15.896  10.426  14.826  0.0143 -0.2221 -0.2203
    2PHE     BB 3047  15.751  10.664  14.835 -0.2933  0.1936 -0.1955
    2PHE    SC1 3048  15.513  10.745  14.981  0.0361 -0.1589  0.0380
    2PHE    SC2 3049  15.379  10.819  15.203 -0.0469 -0.0546 -0.0462
    2PHE    SC3 3050  15.316  10.928  14.964  0.1570 -0.0379 -0.0943
    1GLY     BB 3051  11.077   0.868   1.726  0.1311  0.0646 -0.4295
    2PHE     BB 3052  11.264   0.726   1.559  0.3550  0.0527 -0.0761
    2PHE    SC1 3053  11.264   0.729   1.241 -0.0800  0.2255 -0.0526
    2PHE    SC2 3054  11.382   0.919   1.092  0.1664  0.1090 -0.0106
    2PHE    SC3 3055  11.377   0.664   1.005  0.1668  0.0697  0.1033
    1GLY     BB 3056   6.144  12.674   1.128 -0.1268  0.1838  0.1502
    2PHE     BB 3057   6.280  12.527   1.362 -0.2118 -0.2729  0.0712
    2PHE    SC1 3058   6.424  12.307   1.236  0.3746 -0.0198 -0.0364
    2PHE    SC2 3059   6.510  12.065   1.321  0.0317 -0.1785 -0.1253
    2PHE    SC3 3060   6.445  12.101   1.062 -0.0412 -0.0266 -0.0871
    1GLY     BB 3061   3.816   5.520   2.437 -0.0132 -0.0403  0.4037
    2PHE     BB 3062   3.685   5.279   2.433  0.0829 -0.0064  0.2828
    2PHE    SC1 3063   3.800   5.107   2.633 -0.1442 -0.0103  0.1012
    2PHE    SC2 3064   3.783   4.987   2.874 -0.0999 -0.1482  0.0367
    2PHE    SC3 3065   4.010   4.968   2.729 -0.1556 -0.1381 -0.0526
    1GLY     BB 3066   5.934   3.537   9.311 -0.0618 -0.1531  0.0154
    2PHE     BB 3067   5.918   3.261   9.273 -0.0743  0.0237 -0.1353
    2PHE    SC1 3068   5.833   3.157   9.011 -0.1115  0.0110 -0.0221
    2PHE    SC2 3069   5.930   3.108   8.764  0.0152 -0.0422  0.0377
    2PHE    SC3 3070   5.741   3.298   8.799  0.2519  0.2166 -0.0505
    1GLY     BB 3071   2.922   8.688  13.087  0.1449 -0.1397  0.0394
    2PHE     BB 3072   2.908   8.481  13.187 -0.0750  0.1492 -0.1208
    2PHE    SC1 3073   3.011   8.221  13.015  0.2359  0.2899  0.0997
    2PHE    SC2 3074   3.142   8.099  12.814 -0.2292  0.2044 -0.1673
    2PHE    SC3 3075   3.083   7.962  13.039  0.4656  0.3549  0.1347
    1GLY     BB 3076   4.423   5.817   8.511 -0.1525  0.2525  0.2992
    2PHE     BB 3077   4.357   5.620   8.774 -0.1619  0.1014  0.1122
    2PHE    SC1 3078   4.188   5.424   8.648  0.1583  0.0033 -0.1710
    2PHE    SC2 3079   4.073   5.373   8.409  0.1342 -0.1393 -0.1298
    2PHE    SC3 3080   4.106   5.174   8.588 -0.2380  0.0432  0.1566
    1GLY     BB 3081  12.900  11.291   8.259  0.0276 -0.1342 -0.0875
    2PHE     BB 3082  13.047  11.195   8.105  0.2297  0.0562 -0.1471
    2PHE    SC1 3083  13.045  10.915   8.070  0.1463  0.0498  0.2611
    2PHE    SC2 3084  13.066  10.649   8.027 -0.0343  0.1116 -0.2876
    2PHE    SC3 3085  12.949  10.741   8.253  0.2721 -0.2628  0.0380
    1GLY     BB 3086   4.142  15.548  10.189 -0.2230 -0.1460  0.0121
    2PHE     BB 3087   3.953  15.702  10.198  0.0061  0.0821 -0.0462
    2PHE    SC1 3088   3.737  15.712   9.970 -0.1530 -0.0254 -0.0350
    2PHE    SC2 3089   3.555  15.836   9.815  0.0872 -0.0645 -0.3593
    2PHE    SC3 3090   3.546  15.568   9.844 -0.1571 -0.0265 -0.0273
    1GLY     BB 3091  15.732  10.149  10.726  0.2524 -0.1721 -0.1264
    2PHE     BB 3092  15.643  10.160  10.940  0.1431  0.0290 -0.3590
    2PHE    SC1 3093  15.523  10.012  11.168 -0.2658  0.1607 -0.0410
    2PHE    SC2 3094  15.532   9.868  11.397 -0.0369  0.2370 -0.0004
    2PHE    SC3 3095  15.347  10.062  11.367  0.0474  0.3505  0.1962
    1GLY     BB 3096  11.796   5.867  12.771  0.1816  0.4235 -0.3695
    2PHE     BB 3097  11.943   5.783  12.902 -0.4863  0.0887  0.0817
    2PHE    SC1 3098  12.158   5.566  12.769  0.1296  0.3367 -0.3691
    2PHE    SC2 3099  12.262   5.322  12.716  0.2168  0.3646 -0.3293
    2PHE    SC3 3100  12.425   5.536  12.741  0.1862  0.3478  0.0839
    1GLY     BB 3101  13.495   5.436   2.807  0.0169 -0.1028 -0.1614
    2PHE     BB 3102  13.573   5.521   2.978 -0.3067  0.1143 -0.0889
    2PHE    SC1 3103  13.607   5.840   3.066  0.4748  0.0326  0.0060
    2PHE    SC2 3104  13.595   6.029   3.259  0.3975  0.0674 -0.0324
    2PHE    SC3 3105  13.638   6.101   3.003 -0.2565  0.1023 -0.1490
    1GLY     BB 3106  11.018  13.269   8.504 -0.2093  0.1252  0.0217
    2PHE     BB 3107  10.855  13.337   8.264  0.1685  0.0583 -0.3045
    2PHE    SC1 3108  10.703  13.115   8.125 -0.0117 -0.1571 -0.0066
    2PHE    SC2 3109  10.607  12.864   8.150 -0.1708 -0.1113 -0.1349
    2PHE    SC3 3110  10.672  12.960   7.906 -0.3137  0.0445 -0.1128
    1GLY     BB 3111   1.224   8.967   9.203  0.0079 -0.0022  0.1760
    2PHE     BB 3112   1.329   8.809   8.889  0.2220 -0.0316  0.2665
    2PHE    SC1 3113   1.626   8.774   8.843  0.2160  0.2726  0.2473
    2PHE    SC2 3114   1.881   8.811   8.761  0.2394  0.0508  0.2142
    2PHE    SC3 3115   1.811   8.582   8.885 -0.0257 -0.0513 -0.1098
    1GLY     BB 3116  15.731   1.327  10.789  0.1385 -0.1239 -0.0140
    2PHE     BB 3117  15.545   1.404  10.524 -0.4685 -0.1641 -0.0810
    2PHE    SC1 3118  15.752   1.377  10.284  0.1616  0.0944  0.1762
    2PHE    SC2 3119  15.758   1.411  10.016 -0.0477  0.2947  0.1936
    2PHE    SC3 3120  15.821   1.171  10.123 -0.1040  0.1705 -0.0442
    1GLY     BB 3121  11.836   2.579   9.466 -0.0413  0.1013 -0.3853
    2PHE     BB 3122  11.629   2.602   9.177 -0.3103  0.1789 -0.1333
    2PHE    SC1 3123  11.688   2.381   8.979 -0.0527  0.1240 -0.2914
    2PHE    SC2 3124  11.735   2.123   9.042  0.3794  0.2378 -0.1104
    2PHE    SC3 3125  11.604   2.184   8.814  0.0660 -0.1411 -0.0440
    1GLY     BB 3126   3.891   1.380  10.161  0.3114  0.1492 -0.2020
    2PHE     BB 3127   3.976   1.609  10.073 -0.2256 -0.2831 -0.2157
    2PHE    SC1 3128   3.969   1.860   9.925  0.0662 -0.0476  0.0652
    2PHE    SC2 3129   4.032   2.099   9.816  0.0916 -0.1339 -0.1133
    2PHE    SC3 3130   3.829   1.953   9.714  0.0114 -0.1446  0.0582
    1GLY     BB 3131   1.000   4.172   0.159  0.3224  0.1463 -0.0258
    2PHE     BB 3132   0.692   4.222   0.394 -0.0046 -0.1826  0.1367
    2PHE    SC1 3133   0.570   3.932   0.333  0.2655 -0.0873 -0.0907
    2PHE    SC2 3134   0.567   3.695   0.462 -0.2407 -0.0009  0.0799
    2PHE    SC3 3135   0.377   3.751   0.279 -0.1322  0.2784  0.0481
    1GLY     BB 3136   7.165  14.425  16.131  0.1067 -0.0375  0.2060
    2PHE     BB 3137   7.297  14.625  16.260 -0.1900  0.4673  0.1425
    2PHE    SC1 3138   7.203  14.893  16.337  0.2824  0.0421  0.0207
    2PHE    SC2 3139   7.315  15.078  16.499  0.1326  0.2356 -0.0914
    2PHE    SC3 3140   7.069  15.120  16.396 -0.0572 -0.1877  0.1619
    1GLY     BB 3141  14.059  13.407  14.628 -0.2111  0.2794 -0.1168
    2PHE     BB 3142  14.192  13.189  14.419 -0.0465 -0.0079 -0.0308
    2PHE    SC1 3143  14.019  12.920  14.269 -0.0525  0.0172  0.0594
    2PHE    SC2 3144  13.773  12.808  14.266 -0.0346 -0.0222  0.0642
    2PHE    SC3 3145  13.976  12.692  14.131 -0.1264  0.2560 -0.3282
    1GLY     BB 3146   6.326  14.798  14.972  0.0564 -0.2566  0.2272
    2PHE     BB 3147   6.278  14.630  14.986 -0.0068 -0.1288 -0.1019
    2PHE    SC1 3148   6.168  14.485  15.257  0.0047  0.1566  0.1122
    2PHE    SC2 3149   6.213  14.326  15.471 -0.3761  0.0252  0.1019
    2PHE    SC3 3150   5.981  14.464  15.451 -0.2511  0.2105 -0.1224
    1GLY     BB 3151   6.133   4.721   0.937  0.0836  0.4039  0.1684
    2PHE     BB 3152   6.201   4.747   1.079 -0.3109  0.1799 -0.1577
    2PHE    SC1 3153   6.446   4.862   1.239  0.1219 -0.0702  0.0172
    2PHE    SC2 3154   6.591   4.706   1.405  0.0205 -0.4710 -0.2572
    2PHE    SC3 3155   6.701   4.928   1.297  0.2131 -0.4197  0.0342
    1GLY     BB 3156  14.895  11.162   2.921 -0.0349 -0.1604  0.0214
    2PHE     BB 3157  14.886  11.294   3.079  0.1512 -0.3032  0.1675
    2PHE    SC1 3158  14.991  11.619   3.114 -0.1104  0.0665 -0.2408
    2PHE    SC2 3159  14.888  11.868   3.096 -0.1521  0.1006  0.3011
    2PHE    SC3 3160  15.123  11.828   3.222 -0.0835 -0.1245  0.1098
    1GLY     BB 3161  10.571   8.284  13.769 -0.0379 -0.1209  0.1781
    2PHE     BB 3162  10.666   8.456  13.602  0.3648 -0.1152 -0.2483
    2PHE    SC1 3163  10.700   8.713  13.611 -0.0409 -0.2346  0.1264
    2PHE    SC2 3164  10.935   8.846  13.622 -0.0592 -0.1800 -0.0922
    2PHE    SC3 3165  10.705   8.975  13.678 -0.0788 -0.1115 -0.3210
    1GLY     BB 3166  11.819   0.533   9.470  0.1366 -0.2001  0.0886
    2PHE     BB 3167  11.956   0.907   9.294 -0.1778 -0.1030  0.1536
    2PHE    SC1 3168  11.710   1.035   9.415 -0.0124 -0.3191  0.1444
    2PHE    SC2 3169  11.503   0.938   9.560 -0.2702  0.0759  0.0588
    2PHE    SC3 3170  11.503   1.196   9.481  0.2181  0.0606 -0.0256
    1GLY     BB 3171   9.538  15.450  12.276  0.2136  0.2109 -0.1244
    2PHE     BB 3172   9.647  15.664  12.188 -0.0815  0.0975  0.3037
    2PHE    SC1 3173   9.938  15.708  12.215  0.1168  0.0294 -0.2674
    2PHE    SC2 3174  10.148  15.846  12.115  0.2652  0.1231  0.1500
    2PHE    SC3 3175  10.139  15.785  12.378 -0.1175 -0.0970  0.0949
    1GLY     BB 3176   7.525  13.985   2.883 -0.0945  0.0608 -0.3762
    2PHE     BB 3177   7.531  13.697   2.999 -0.2313  0.3217  0.1606
    2PHE    SC1 3178   7.787  13.576   2.929  0.3066  0.1740  0.0646
    2PHE    SC2 3179   7.896  13.344   3.013  0.3421  0.2008  0.0926
    2PHE    SC3 3180   7.961  13.444   2.771  0.1118  0.0374 -0.0408
    1GLY     BB 3181   5.330  14.004   9.868 -0.1762 -0.1697 -0.2463
    2PHE     BB 3182   5.252  13.628   9.831  0.0628  0.0618  0.0516
    2PHE    SC1 3183   5.490  13.548   9.641 -0.1534 -0.0178 -0.0577
    2PHE    SC2 3184   5.686  13.528   9.456  0.0056 -0.1152  0.1182
    2PHE    SC3 3185   5.724  13.429   9.705 -0.3973 -0.4611  0.0521
    1GLY     BB 3186   0.701   1.491  10.373 -0.1995 -0.1886  0.0997
    2PHE     BB 3187   0.536   1.697  10.114  0.1847  0.0878 -0.4939
    2PHE    SC1 3188   0.263   1.576  10.067 -0.2018 -0.1928 -0.1766
    2PHE    SC2 3189   0.239   1.360   9.908 -0.0704 -0.3564  0.0205
    2PHE    SC3 3190   0.021   1.506   9.970 -0.1025 -0.1956 -0.4307
    1GLY     BB 3191   0.916   4.986   8.062 -0.2034 -0.1314  0.1501
    2PHE     BB 3192   1.006   4.742   7.931 -0.2202 -0.2948 -0.0879
    2PHE    SC1 3193   1.039   4.470   8.075  0.4606  0.1074 -0.0401
    2PHE    SC2 3194   0.849   4.288   8.136 -0.1547  0.6302 -0.2916
    2PHE    SC3 3195   1.032   4.359   8.321 -0.1072  0.0205 -0.0830
    1GLY     BB 3196  15.475   2.262  11.788 -0.1169 -0.1357  0.0641
    2PHE     BB 3197  15.503   2.315  11.959 -0.0890  0.0401  0.3486
    2PHE    SC1 3198  15.822   2.263  12.066 -0.0184 -0.0491  0.3369
    2PHE    SC2 3199  15.924   2.043  12.186  0.2366 -0.0542  0.1189
    2PHE    SC3 3200  15.920   2.279  12.317  0.0551 -0.1642  0.3162
    1GLY     BB 3201   2.526  12.308  13.239  0.2300 -0.1736 -0.4173
    2PHE     BB 3202   2.307  12.259  13.504  0.0104  0.1014 -0.1138
    2PHE    SC1 3203   2.304  12.510  13.681  0.0585  0.1870 -0.3348
    2PHE    SC2 3204   2.310  12.779  13.703  0.4099  0.1613 -0.0290
    2PHE    SC3 3205   2.412  12.625  13.900  0.2628 -0.1979 -0.2249
    1GLY     BB 3206   6.689   0.985   4.782 -0.1463  0.1504  0.0222
    2PHE     BB 3207   6.802   0.948   5.013  0.2026  0.0301  0.1749
    2PHE    SC1 3208   6.781   0.816   5.271  0.1223 -0.1158 -0.2386
    2PHE    SC2 3209   6.746   0.609   5.441 -0.0806 -0.0718 -0.2243
    2PHE    SC3 3210   6.830   0.849   5.534 -0.2408 -0.0333 -0.1768
    1GLY     BB 3211  15.516  15.041   9.469  0.0206 -0.0094 -0.1330
    2PHE     BB 3212  15.488  14.977   9.733 -0.4058  0.1389  0.2579
    2PHE    SC1 3213  15.322  15.112   9.939  0.1932  0.3217 -0.0789
    2PHE    SC2 3214  15.237  15.317  10.093  0.2859  0.1063  0.2697
    2PHE    SC3 3215  15.120  15.074  10.113  0.3590  0.0514  0.0625
    1GLY     BB 3216   1.256  14.645   2.991 -0.1475 -0.0944 -0.0143
    2PHE     BB 3217   1.212  14.486   3.071  0.4624 -0.2132  0.1979
    2PHE    SC1 3218   1.062  14.217   3.009 -0.0422  0.2880  0.1328
    2PHE    SC2 3219   0.859  14.189   2.833 -0.1020 -0.0460  0.2475
    2PHE    SC3 3220   0.983  13.970   2.932  0.0693  0.1435  0.4625
    1GLY     BB 3221   7.332  16.188   5.032  0.0190  0.0533  0.2431
    2PHE     BB 3222   7.054  16.260   4.910 -0.1700 -0.0209  0.0993
    2PHE    SC1 3223   6.955  16.516   5.045 -0.1580  0.2509 -0.0051
    2PHE    SC2 3224   6.809  16.594   5.259 -0.0395  0.2548  0.0756
    2PHE    SC3 3225   6.877  16.774   5.070 -0.0551  0.2738  0.0880
    1GLY     BB 3226   6.472   3.200   3.905 -0.2321  0.0707 -0.1056
    2PHE     BB 3227   6.409   3.600   3.962  0.0265 -0.1860  0.0638
    2PHE    SC1 3228   6.517   3.731   3.681  0.2687 -0.4480 -0.3354
    2PHE    SC2 3229   6.668   3.823   3.477 -0.0994 -0.1996 -0.5070
    2PHE    SC3 3230   6.408   3.892   3.494 -0.1814 -0.5553 -0.1777
    1GLY     BB 3231   7.814   2.608   3.047 -0.0257  0.0953  0.0714
    2PHE     BB 3232   7.984   2.673   3.048 -0.0614  0.1003 -0.0161
    2PHE    SC1 3233   8.294   2.608   3.082  0.0532 -0.2561 -0.1341
    2PHE    SC2 3234   8.531   2.492   3.142  0.2258  0.0222 -0.2597
    2PHE    SC3 3235   8.525   2.737   3.028 -0.1263  0.0443 -0.2047
    1GLY     BB 3236  11.871   5.207   0.028  0.3553 -0.0937  0.0952
    2PHE     BB 3237  11.628   5.146  -0.169  0.2482  0.1609  0.1266
    2PHE    SC1 3238  11.578   5.422  -0.274 -0.4182  0.0386  0.0710
    2PHE    SC2 3239  11.716   5.644  -0.338 -0.3711 -0.0888 -0.2892
    2PHE    SC3 3240  11.468   5.605  -0.438 -0.4605 -0.1075 -0.0663
    1GLY     BB 3241  12.071   5.619   8.885 -0.1464 -0.1647 -0.2245
    2PHE     BB 3242  12.236   5.550   8.904  0.1508  0.0699 -0.2412
    2PHE    SC1 3243  12.527   5.581   8.810 -0.0763  0.1287 -0.0002
    2PHE    SC2 3244  12.722   5.674   8.648  0.0279 -0.0439  0.0241
    2PHE    SC3 3245  12.581   5.454   8.578  0.1178 -0.1585  0.1960
    1GLY     BB 3246   6.481   6.403   2.655  0.1414 -0.1346  0.1702
    2PHE     BB 3247   6.433   6.286   2.439  0.1667 -0.4248  0.2757
    2PHE    SC1 3248   6.425   5.987   2.353  0.0354  0.1821 -0.0038
    2PHE    SC2 3249   6.218   5.815   2.330  0.0112  0.1728  0.2513
    2PHE    SC3 3250   6.468   5.721   2.365  0.0460  0.1859  0.0491
    1GLY     BB 3251   9.303   7.489   6.441 -0.1758 -0.0952 -0.1297
    2PHE     BB 3252   9.249   7.835   6.540 -0.1723 -0.2796 -0.1079
    2PHE    SC1 3253   9.528   7.913   6.575  0.1137 -0.0047 -0.1723
    2PHE    SC2 3254   9.649   7.807   6.792  0.0003  0.1340 -0.0386
    2PHE    SC3 3255   9.765   8.011   6.658  0.3174 -0.2755 -0.4172
    1GLY     BB 3256  13.772   6.915   2.189  0.0230 -0.0418  0.2510
    2PHE     BB 3257  14.014   6.799   2.255 -0.1932 -0.1708  0.0193
    2PHE    SC1 3258  14.235   6.588   2.280  0.0531 -0.0449 -0.2165
    2PHE    SC2 3259  14.416   6.450   2.133 -0.2995 -0.5834 -0.1756
    2PHE    SC3 3260  14.427   6.443   2.403 -0.3219 -0.5324 -0.1732
    1GLY     BB 3261   9.458   1.477   0.673  0.3495  0.1081 -0.5413
    2PHE     BB 3262   9.400   1.468   1.043 -0.0566 -0.2025 -0.1086
    2PHE    SC1 3263   9.181   1.345   1.173  0.0833  0.0287 -0.1485
    2PHE    SC2 3264   9.156   1.121   1.321 -0.0188  0.1052 -0.0490
    2PHE    SC3 3265   8.943   1.218   1.187 -0.0285  0.2558  0.0727
    1GLY     BB 3266  10.549   4.609   6.616  0.0916 -0.0814 -0.0317
    2PHE     BB 3267  10.328   4.541   6.569 -0.1703 -0.1175 -0.1684
    2PHE    SC1 3268  10.193   4.377   6.353  0.1892 -0.1120 -0.0823
    2PHE    SC2 3269   9.958   4.263   6.282 -0.1785  0.3699  0.2841
    2PHE    SC3 3270  10.102   4.402   6.100 -0.0959 -0.0381  0.0238
    1GLY     BB 3271  12.510   8.549  14.759  0.1459  0.1533 -0.1575
    2PHE     BB 3272  12.288   8.400  14.532 -0.0795 -0.1248 -0.0517
    2PHE    SC1 3273  12.221   8.091  14.532 -0.0318 -0.0101 -0.0710
    2PHE    SC2 3274  12.199   7.824  14.569  0.2925 -0.0348 -0.0249
    2PHE    SC3 3275  12.263   7.922  14.326 -0.0889  0.0227 -0.1098
    1GLY     BB 3276   7.362   1.385   6.512 -0.0001 -0.0047  0.0732
    2PHE     BB 3277   7.377   1.180   6.540  0.0295 -0.0402  0.0142
    2PHE    SC1 3278   7.325   0.902   6.408  0.1013 -0.1611  0.1411
    2PHE    SC2 3279   7.291   0.833   6.149  0.1539  0.2706  0.0107
    2PHE    SC3 3280   7.133   0.725   6.340  0.2487 -0.2088 -0.1677
    1GLY     BB 3281   8.443  14.886   4.148  0.1179  0.0355 -0.1014
    2PHE     BB 3282   8.566  14.699   3.927  0.0874  0.0853 -0.0662
    2PHE    SC1 3283   8.515  14.383   3.971 -0.0242 -0.0048 -0.1328
    2PHE    SC2 3284   8.568  14.123   3.922  0.0191 -0.0065 -0.0776
    2PHE    SC3 3285   8.359  14.190   4.078  0.0445 -0.0106 -0.0416
    1GLY     BB 3286   1.976  11.939   0.992 -0.2359 -0.1810 -0.3154
    2PHE     BB 3287   2.324  11.963   1.042 -0.0711  0.2352  0.0443
    2PHE    SC1 3288   2.491  12.138   1.216 -0.0936  0.0500 -0.2852
    2PHE    SC2 3289   2.640  12.291   1.382 -0.3753  0.2733 -0.2300
    2PHE    SC3 3290   2.394  12.208   1.458 -0.2961 -0.0696 -0.3292
    1GLY     BB 3291   3.474  15.330   9.278  0.0155  0.3781 -0.2690
    2PHE     BB 3292   3.466  15.554   9.310 -0.2025  0.2504 -0.0229
    2PHE    SC1 3293   3.782  15.667   9.389 -0.0689  0.1085 -0.3163
    2PHE    SC2 3294   4.038  15.584   9.404 -0.1094  0.0264 -0.0206
    2PHE    SC3 3295   3.936  15.741   9.597 -0.2670  0.1068 -0.1667
    1GLY     BB 3296   4.853  15.752   7.632  0.0577 -0.0767 -0.2392
    2PHE     BB 3297   4.923  15.987   7.474  0.1460  0.0249  0.1443
    2PHE    SC1 3298   4.711  16.214   7.499  0.2312 -0.0480  0.0889
    2PHE    SC2 3299   4.449  16.213   7.567  0.2268 -0.0601  0.0719
    2PHE    SC3 3300   4.550  16.417   7.421  0.2203 -0.0700  0.0535
    1GLY     BB 3301   0.966   0.954  12.626 -0.0157 -0.2320 -0.4637
    2PHE     BB 3302   1.201   1.075  12.523  0.2332 -0.1772  0.0157
    2PHE    SC1 3303   1.488   1.040  12.475  0.1869 -0.0920  0.3224
    2PHE    SC2 3304   1.757   1.065  12.480  0.1936  0.1225 -0.3132
    2PHE    SC3 3305   1.638   0.912  12.291 -0.1334 -0.0810  0.0438
    1GLY     BB 3306   8.022  16.114   0.357  0.0055  0.3555 -0.2303
    2PHE     BB 3307   8.097  16.038   0.632 -0.1350  0.1944  0.0819
    2PHE    SC1 3308   7.794  15.948   0.797 -0.2400 -0.3211 -0.1805
    2PHE    SC2 3309   7.705  15.966   1.051 -0.0593  0.0167 -0.1355
    2PHE    SC3 3310   7.560  15.833   0.867 -0.2820 -0.0779  0.1014
    1GLY     BB 3311   5.220   8.634  15.988 -0.0565  0.2799  0.1420
    2PHE     BB 3312   5.190   8.451  15.842  0.0759 -0.0539 -0.1693
    2PHE    SC1 3313   4.985   8.190  15.921  0.1632 -0.0758  0.0834
    2PHE    SC2 3314   4.751   8.069  15.859  0.1581 -0.0453  0.0421
    2PHE    SC3 3315   4.985   7.947  15.803  0.1543  0.0031 -0.0827
    1GLY     BB 3316   0.714  10.481  13.762  0.1351 -0.0806  0.2788
    2PHE     BB 3317   0.743  10.231  13.756  0.1607 -0.4332 -0.2754
    2PHE    SC1 3318   0.775  10.035  13.570  0.1833 -0.0375 -0.0990
    2PHE    SC2 3319   0.908   9.911  13.371 -0.1015 -0.2190 -0.1819
    2PHE    SC3 3320   0.701   9.787  13.493 -0.1786  0.0447 -0.0370
    1GLY     BB 3321   6.008  10.490   3.913  0.0178  0.0421 -0.0945
    2PHE     BB 3322   6.130  10.605   3.680  0.0223  0.4324 -0.3069
    2PHE    SC1 3323   6.268  10.454   3.450  0.3117 -0.0871 -0.0635
    2PHE    SC2 3324   6.354  10.536   3.207  0.2660 -0.1344 -0.0958
    2PHE    SC3 3325   6.278  10.279   3.244  0.2115 -0.1118 -0.0479
    1GLY     BB 3326  15.024   8.979   8.142  0.0385 -0.0111 -0.0452
    2PHE     BB 3327  15.101   9.019   7.825  0.0028  0.0605  0.0443
    2PHE    SC1 3328  15.043   8.801   7.611 -0.1741  0.0060  0.0496
    2PHE    SC2 3329  15.109   8.633   7.410 -0.1637 -0.0603  0.1078
    2PHE    SC3 3330  14.990   8.537   7.633  0.0890 -0.0336  0.2583
    1GLY     BB 3331   5.632  15.915   6.799 -0.1726  0.1608 -0.2953
    2PHE     BB 3332   5.695  16.017   6.678  0.0950  0.3384  0.2000
    2PHE    SC1 3333   5.959  16.125   6.515 -0.0491 -0.0247 -0.0085
    2PHE    SC2 3334   6.151  16.081   6.331 -0.2763 -0.3596 -0.1756
    2PHE    SC3 3335   6.163  16.300   6.488  0.0712 -0.2128 -0.3935
    1GLY     BB 3336   7.419   5.693   1.980  0.1483 -0.0028  0.0872
    2PHE     BB 3337   7.322   5.809   2.101 -0.1802 -0.0659 -0.1997
    2PHE    SC1 3338   7.092   5.985   2.191  0.0617  0.0100 -0.1691
    2PHE    SC2 3339   6.877   5.968   2.353  0.2040  0.2325  0.0506
    2PHE    SC3 3340   6.845   6.023   2.091 -0.0212 -0.0200  0.0205
    1GLY     BB 3341   1.980   9.780  14.365  0.1896 -0.0154  0.1006
    2PHE     BB 3342   1.892   9.804  14.102  0.0866 -0.0172  0.3009
    2PHE    SC1 3343   1.728   9.652  13.913 -0.0302  0.3726 -0.1896
    2PHE    SC2 3344   1.665   9.418  13.793  0.3212  0.0646  0.1953
    2PHE    SC3 3345   1.621   9.652  13.665 -0.0411 -0.2038 -0.1983
    1GLY     BB 3346   4.232   6.315  11.933 -0.2448  0.0087  0.2310
    2PHE     BB 3347   4.079   6.418  12.095  0.0331  0.0327  0.1117
    2PHE    SC1 3348   3.934   6.687  12.142  0.3817  0.3469  0.2640
    2PHE    SC2 3349   3.787   6.879  12.023  0.0614  0.0222  0.1166
    2PHE    SC3 3350   3.741   6.814  12.281 -0.0084 -0.0327  0.0904
    1GLY     BB 3351  11.189   2.501   8.937  0.0523 -0.1182 -0.1544
    2PHE     BB 3352  10.958   2.454   8.789  0.1771 -0.0211  0.2061
    2PHE    SC1 3353  11.031   2.261   8.563  0.3465  0.1862  0.3355
    2PHE    SC2 3354  11.208   2.058   8.539  0.1023  0.0183 -0.1723
    2PHE    SC3 3355  10.943   2.007   8.537  0.0389  0.3247 -0.0689
    1GLY     BB 3356  16.353   8.977   4.221  0.0809  0.3566  0.0405
    2PHE     BB 3357  16.358   9.176   4.129  0.0996  0.0354  0.0039
    2PHE    SC1 3358  16.155   9.299   3.938 -0.0600 -0.2575  0.2119
    2PHE    SC2 3359  15.942   9.254   3.777  0.1168 -0.0657 -0.0858
    2PHE    SC3 3360  15.929   9.444   3.969  0.0275 -0.0395 -0.1174
    1GLY     BB 3361   0.628  12.993   8.598 -0.0041 -0.2800  0.0030
    2PHE     BB 3362   0.572  12.915   8.856  0.0725  0.0847  0.1268
    2PHE    SC1 3363   0.792  12.755   8.986 -0.3729 -0.1362  0.1765
    2PHE    SC2 3364   1.013  12.675   9.120 -0.0813  0.2191 -0.0708
    2PHE    SC3 3365   0.847  12.492   9.011  0.2376 -0.0554 -0.1114
    1GLY     BB 3366   4.192  15.273   2.762  0.0280 -0.0183  0.0729
    2PHE     BB 3367   4.177  15.009   2.931  0.4083  0.0391 -0.1887
    2PHE    SC1 3368   4.341  14.830   2.736 -0.0929 -0.0232 -0.0560
    2PHE    SC2 3369   4.292  14.669   2.525 -0.1161  0.2373 -0.2548
    2PHE    SC3 3370   4.539  14.772   2.562  0.0005 -0.1381  0.0860
    1GLY     BB 3371   9.308  15.292  13.115 -0.0498 -0.2233  0.1017
    2PHE     BB 3372   9.502  15.418  13.163  0.1440  0.2412 -0.1427
    2PHE    SC1 3373   9.579  15.515  13.433  0.0344  0.0860 -0.0923
    2PHE    SC2 3374   9.664  15.447  13.680  0.3934  0.2415 -0.1663
    2PHE    SC3 3375   9.577  15.698  13.632  0.2908  0.2016 -0.1918
    1GLY     BB 3376   9.649  12.331   7.838  0.0724  0.0191 -0.3249
    2PHE     BB 3377   9.813  12.419   7.955 -0.1382  0.1177  0.2170
    2PHE    SC1 3378  10.121  12.477   7.874 -0.0491  0.0587  0.0967
    2PHE    SC2 3379  10.382  12.510   7.936 -0.1174  0.0700  0.3955
    2PHE    SC3 3380  10.303  12.297   7.790  0.0725  0.1367  0.1897
    1GLY     BB 3381   0.736   8.319   2.566 -0.2350  0.2231 -0.1648
    2PHE     BB 3382   0.765   8.053   2.403  0.2071 -0.0809  0.0142
    2PHE    SC1 3383   0.970   7.876   2.498  0.1027  0.1250 -0.2354
    2PHE    SC2 3384   1.088   7.634   2.498 -0.1690 -0.0106 -0.2189
    2PHE    SC3 3385   1.229   7.852   2.569 -0.0366 -0.2216  0.2030
    1GLY     BB 3386   2.649   2.381   4.360 -0.0299 -0.0341  0.1979
    2PHE     BB 3387   2.449   2.315   4.120  0.0540 -0.3540 -0.0460
    2PHE    SC1 3388   2.616   2.080   3.958 -0.0773 -0.0997  0.1018
    2PHE    SC2 3389   2.574   1.931   3.736 -0.0593  0.0990 -0.0375
    2PHE    SC3 3390   2.800   1.898   3.880  0.1831  0.3346 -0.3513
    1GLY     BB 3391   7.335  13.405   8.143  0.2673 -0.0172 -0.0062
    2PHE     BB 3392   7.586  13.301   8.243 -0.0454  0.1664  0.3259
    2PHE    SC1 3393   7.583  12.980   8.243 -0.2782 -0.1438  0.0092
    2PHE    SC2 3394   7.433  12.829   8.077 -0.1057 -0.2298 -0.0702
    2PHE    SC3 3395   7.591  12.711   8.261  0.0527 -0.1502 -0.1519
    1GLY     BB 3396   6.369   1.326   6.203 -0.2194 -0.1375  0.2525
    2PHE     BB 3397   6.354   1.182   6.418  0.1612  0.0287  0.1074
    2PHE    SC1 3398   6.455   0.898   6.440 -0.2099  0.2354  0.0562
    2PHE    SC2 3399   6.409   0.644   6.361  0.1390  0.3331 -0.5185
    2PHE    SC3 3400   6.595   0.696   6.550 -0.3110  0.1360  0.0048
    1GLY     BB 3401   7.494  15.967   0.089  0.2632 -0.0450  0.1993
    2PHE     BB 3402   7.545  15.915   0.305  0.0035  0.1265 -0.0146
    2PHE    SC1 3403   7.454  15.636   0.418 -0.3390 -0.0909  0.1249
    2PHE    SC2 3404   7.469  15.465   0.626 -0.0232 -0.0590  0.1333
    2PHE    SC3 3405   7.496  15.373   0.374 -0.1794 -0.0652  0.1177
    1GLY     BB 3406   5.973   9.049   4.074 -0.0273 -0.0814  0.0989
    2PHE     BB 3407   6.149   9.063   3.857  0.2202 -0.0274  0.3718
    2PHE    SC1 3408   6.017   9.228   3.605 -0.2202 -0.1869  0.0338
    2PHE    SC2 3409   5.897   9.257   3.365 -0.1412 -0.1478 -0.0015
    2PHE    SC3 3410   5.917   9.468   3.531  0.0109 -0.1159 -0.0585
    1GLY     BB 3411  14.257   6.610   5.622 -0.1884  0.1776  0.0223
    2PHE     BB 3412  14.093   6.412   5.583 -0.1202  0.2371  0.0565
    2PHE    SC1 3413  13.998   6.335   5.884  0.0775 -0.0974  0.0855
    2PHE    SC2 3414  14.091   6.210   6.104 -0.3155 -0.1152  0.2491
    2PHE    SC3 3415  13.953   6.441   6.128  0.4121  0.3884 -0.0482
    1GLY     BB 3416  10.360  10.372  12.678 -0.0064  0.2019  0.0381
    2PHE     BB 3417  10.596  10.195  12.632 -0.1196 -0.1622 -0.2693
    2PHE    SC1 3418  10.679  10.084  12.360  0.1153  0.0506  0.0805
    2PHE    SC2 3419  10.822  10.075  12.131  0.2022  0.0742  0.1332
    2PHE    SC3 3420  10.765   9.847  12.264 -0.1932  0.0146 -0.1202
    1GLY     BB 3421  13.115  11.856   6.075  0.3085 -0.0765 -0.3969
    2PHE     BB 3422  13.016  11.674   6.029  0.1366 -0.0023  0.2020
    2PHE    SC1 3423  12.823  11.649   5.751 -0.2473  0.2273  0.0777
    2PHE    SC2 3424  12.831  11.628   5.482  0.1295 -0.5171  0.1186
    2PHE    SC3 3425  12.599  11.587   5.614 -0.0428 -0.2145 -0.0785
    1GLY     BB 3426   0.684  10.801  13.225  0.1399  0.1341 -0.1066
    2PHE     BB 3427   0.823  10.755  13.352 -0.2325  0.0163 -0.2624
    2PHE    SC1 3428   1.026  10.513  13.399 -0.2019 -0.2991 -0.1228
    2PHE    SC2 3429   1.273  10.439  13.320  0.0558  0.4195 -0.0684
    2PHE    SC3 3430   1.142  10.294  13.506  0.3033 -0.1318 -0.2985
    1GLY     BB 3431  14.376  12.095   4.934  0.2847  0.0090  0.0616
    2PHE     BB 3432  14.348  12.327   4.961  0.1242  0.0323  0.0065
    2PHE    SC1 3433  14.422  12.510   5.183 -0.1279  0.2538 -0.0959
    2PHE    SC2 3434  14.291  12.649   5.374  0.0618  0.4144 -0.0801
    2PHE    SC3 3435  14.497  12.762   5.241  0.4291  0.0464  0.1525
    1GLY     BB 3436   5.494  10.435   9.133  0.1576 -0.2239  0.1432
    2PHE     BB 3437   5.336  10.645   9.286  0.2470  0.1018 -0.0077
    2PHE    SC1 3438   5.571  10.794   9.414  0.1110 -0.1127 -0.0795
    2PHE    SC2 3439   5.783  10.929   9.511  0.0948 -0.0921 -0.0728
    2PHE    SC3 3440   5.540  10.961   9.624  0.0872 -0.1118 -0.0836
    1GLY     BB 3441  12.860   1.589   8.099  0.0681  0.1281 -0.3503
    2PHE     BB 3442  12.685   1.578   8.300  0.0669 -0.0853 -0.0999
    2PHE    SC1 3443  12.413   1.716   8.290  0.0936  0.1610  0.1824
    2PHE    SC2 3444  12.164   1.761   8.384 -0.0038 -0.0017  0.0079
    2PHE    SC3 3445  12.269   1.924   8.195 -0.0765 -0.0781 -0.0998
    1GLY     BB 3446   9.585   0.651   1.164  0.1142  0.0743  0.0440
    2PHE     BB 3447   9.397   0.430   1.238  0.0321  0.2234 -0.1221
    2PHE    SC1 3448   9.534   0.155   1.240  0.0171 -0.0198  0.1278
    2PHE    SC2 3449   9.693  -0.057   1.186 -0.1039 -0.0811  0.0089
    2PHE    SC3 3450   9.429  -0.093   1.232 -0.1194  0.0398  0.0198
    1GLY     BB 3451   5.471   9.333  12.152 -0.3045 -0.2651  0.0303
    2PHE     BB 3452   5.344   9.098  12.178 -0.2053  0.1101  0.0885
    2PHE    SC1 3453   5.066   9.041  12.148  0.0263 -0.1926  0.2021
    2PHE    SC2 3454   4.828   8.921  12.103  0.0438 -0.1242 -0.0921
    2PHE    SC3 3455   4.851   9.105  12.298 -0.0124 -0.5043  0.2882
    1GLY     BB 3456   4.718  15.057   9.161  0.1432 -0.0722  0.0552
    2PHE     BB 3457   4.655  15.145   9.520  0.4814 -0.0889  0.1959
    2PHE    SC1 3458   4.607  15.456   9.564 -0.0064  0.1262 -0.3546
    2PHE    SC2 3459   4.481  15.668   9.673  0.1864  0.0894 -0.0483
    2PHE    SC3 3460   4.486  15.638   9.405 -0.2052  0.2409 -0.0803
    1GLY     BB 3461  13.367   6.256   1.941 -0.0896 -0.0733 -0.1099
    2PHE     BB 3462  13.593   6.481   1.998  0.0103 -0.1744  0.0718
    2PHE    SC1 3463  13.861   6.332   2.081 -0.1619 -0.0230  0.0805
    2PHE    SC2 3464  14.032   6.141   2.165 -0.0058  0.0965  0.0387
    2PHE    SC3 3465  13.870   6.094   1.953  0.1086  0.0487 -0.0392
    1GLY     BB 3466   0.745   5.161  15.224 -0.0045 -0.2565 -0.1020
    2PHE     BB 3467   0.599   5.254  15.225  0.1228  0.0957 -0.2218
    2PHE    SC1 3468   0.475   5.498  15.060 -0.2440 -0.0300  0.1122
    2PHE    SC2 3469   0.262   5.619  14.944 -0.0849 -0.1562 -0.3344
    2PHE    SC3 3470   0.503   5.741  14.945 -0.0641 -0.1962 -0.2082
    1GLY     BB 3471   6.093   0.278   5.612  0.2464 -0.0309 -0.3322
    2PHE     BB 3472   6.389   0.384   5.711  0.0882 -0.5296  0.0019
    2PHE    SC1 3473   6.424   0.185   5.955  0.2474 -0.1413 -0.2555
    2PHE    SC2 3474   6.353   0.196   6.215  0.1213  0.1638 -0.2983
    2PHE    SC3 3475   6.424  -0.040   6.104  0.4454  0.0725  0.0806
    1GLY     BB 3476   5.878   4.929   1.498 -0.2573  0.0884  0.1482
    2PHE     BB 3477   6.093   5.039   1.518  0.0891  0.2310 -0.1466
    2PHE    SC1 3478   6.390   5.025   1.642  0.1450  0.1659 -0.2336
    2PHE    SC2 3479   6.553   4.898   1.816  0.0137  0.0030 -0.2269
    2PHE    SC3 3480   6.595   5.158   1.757 -0.0058  0.0946  0.1355
    1GLY     BB 3481   2.730   3.296   6.803 -0.2269 -0.1405 -0.1134
    2PHE     BB 3482   2.579   3.244   6.628 -0.0357 -0.2465  0.2089
    2PHE    SC1 3483   2.287   3.234   6.734 -0.1210 -0.2655 -0.0177
    2PHE    SC2 3484   2.129   3.037   6.829 -0.2056 -0.1929 -0.0055
    2PHE    SC3 3485   2.054   3.294   6.857  0.1109 -0.1329  0.3712
    1GLY     BB 3486   0.655  11.573  13.758  0.4628 -0.1221 -0.2575
    2PHE     BB 3487   0.161  11.738  13.708  0.2324 -0.1180 -0.0348
    2PHE    SC1 3488   0.064  11.602  13.440 -0.2108 -0.0438  0.1695
    2PHE    SC2 3489  -0.091  11.585  13.220 -0.0500 -0.1510  0.0630
    2PHE    SC3 3490   0.170  11.650  13.197 -0.0319 -0.1639  0.2219
    1GLY     BB 3491   2.876   5.114  16.084 -0.0391 -0.3331 -0.3955
    2PHE     BB 3492   2.694   5.037  15.846 -0.1798  0.1021 -0.1319
    2PHE    SC1 3493   2.401   4.987  15.801  0.1058 -0.0013 -0.2394
    2PHE    SC2 3494   2.231   4.936  15.597 -0.0370 -0.1360 -0.0893
    2PHE    SC3 3495   2.150   5.085  15.807  0.0477 -0.1556 -0.0419
    1GLY     BB 3496   0.370  10.779  11.349  0.1241 -0.0840  0.3565
    2PHE     BB 3497   0.550  10.842  11.200  0.4846  0.2367 -0.0545
    2PHE    SC1 3498   0.677  11.143  11.159 -0.2440  0.0635 -0.1550
    2PHE    SC2 3499   0.644  11.378  11.029 -0.0327  0.0849 -0.1724
    2PHE    SC3 3500   0.891  11.273  11.059 -0.0243  0.2517  0.5088
    1GLY     BB 3501  11.973   5.036  13.825  0.2112  0.0808 -0.1261
    2PHE     BB 3502  12.129   4.977  13.693  0.3784 -0.1644  0.0239
    2PHE    SC1 3503  12.187   4.972  13.405  0.2072  0.0914 -0.0206
    2PHE    SC2 3504  12.306   5.132  13.223 -0.0242  0.0494 -0.2129
    2PHE    SC3 3505  12.196   4.897  13.146  0.0809 -0.0808  0.0228
    1GLY     BB 3506  15.045   9.592   4.867 -0.1559  0.0084  0.1405
    2PHE     BB 3507  15.263   9.522   4.770  0.1086  0.0056  0.3066
    2PHE    SC1 3508  15.470   9.633   4.555  0.1255 -0.2872  0.0823
    2PHE    SC2 3509  15.624   9.799   4.409 -0.1345  0.0220  0.1462
    2PHE    SC3 3510  15.666   9.532   4.400 -0.0727  0.0389 -0.4034
    1GLY     BB 3511  14.351   6.056   5.407  0.0975  0.2038 -0.0585
    2PHE     BB 3512  14.713   5.923   5.460  0.1014  0.2159 -0.3287
    2PHE    SC1 3513  14.726   5.768   5.212  0.3659  0.1588 -0.0268
    2PHE    SC2 3514  14.749   5.763   4.943 -0.0490  0.1875 -0.0687
    2PHE    SC3 3515  14.799   5.541   5.087  0.0251  0.1292 -0.1835
    1GLY     BB 3516   8.024   5.616  10.646  0.0682  0.0126 -0.0733
    2PHE     BB 3517   7.874   5.654  10.468 -0.4016  0.1726  0.1798
    2PHE    SC1 3518   7.633   5.655  10.295  0.2053  0.0668 -0.1403
    2PHE    SC2 3519   7.428   5.479  10.293  0.2910 -0.0345 -0.0951
    2PHE    SC3 3520   7.384   5.737  10.230  0.0987  0.0012  0.1684
    1GLY     BB 3521   4.339  15.224   8.492 -0.2475 -0.2365  0.1265
    2PHE     BB 3522   4.361  15.002   8.767 -0.0765 -0.0347  0.3782
    2PHE    SC1 3523   4.199  15.119   8.994 -0.1103 -0.0161  0.0130
    2PHE    SC2 3524   3.998  15.168   9.168 -0.3777 -0.1334 -0.2522
    2PHE    SC3 3525   4.245  15.268   9.214 -0.4926  0.0117  0.0814
    1GLY     BB 3526   1.777  10.540  12.162 -0.2334 -0.0623  0.0152
    2PHE     BB 3527   1.608  10.719  12.305 -0.0401  0.0997 -0.0245
    2PHE    SC1 3528   1.482  10.606  12.585 -0.1798 -0.1120  0.0006
    2PHE    SC2 3529   1.586  10.563  12.831  0.1476 -0.1417 -0.1389
    2PHE    SC3 3530   1.402  10.393  12.730 -0.1100 -0.0399  0.1475
    1GLY     BB 3531   5.726   5.799   2.037 -0.1563 -0.0424  0.1823
    2PHE     BB 3532   5.888   5.919   1.874  0.1062 -0.1219  0.0216
    2PHE    SC1 3533   6.131   6.123   1.854 -0.0557  0.0331 -0.2032
    2PHE    SC2 3534   6.360   6.211   1.967 -0.3606  0.2049  0.3150
    2PHE    SC3 3535   6.230   6.366   1.789  0.0129  0.0230 -0.1391
    1GLY     BB 3536  10.762   2.480   5.707  0.0901 -0.0369  0.1394
    2PHE     BB 3537  10.831   2.240   5.681  0.2594  0.0992  0.0063
    2PHE    SC1 3538  10.921   2.037   5.505 -0.0310 -0.2643  0.1708
    2PHE    SC2 3539  11.138   1.878   5.482  0.1848  0.0511 -0.0606
    2PHE    SC3 3540  10.944   1.869   5.295  0.2225  0.0951 -0.1023
    1GLY     BB 3541  16.243   3.985   7.830  0.1385 -0.2874  0.0061
    2PHE     BB 3542  16.268   3.906   7.990 -0.0323  0.1179 -0.2506
    2PHE    SC1 3543  16.412   4.006   8.269 -0.2542 -0.1816  0.0754
    2PHE    SC2 3544  16.566   3.997   8.491  0.0606 -0.0818 -0.1307
    2PHE    SC3 3545  16.369   4.180   8.470 -0.0331 -0.1522  0.1005
    1GLY     BB 3546  15.791  11.179   3.919  0.0949 -0.2219 -0.0661
    2PHE     BB 3547  15.648  11.121   3.836  0.1388  0.0616  0.2759
    2PHE    SC1 3548  15.475  11.160   3.574  0.0271 -0.0477  0.0998
    2PHE    SC2 3549  15.502  11.338   3.372  0.0508 -0.2254 -0.0565
    2PHE    SC3 3550  15.258  11.238   3.433  0.0391 -0.1490  0.0239
    1GLY     BB 3551  11.351  12.085   3.426 -0.2539 -0.1558 -0.0277
    2PHE     BB 3552  11.634  12.020   3.300 -0.3425 -0.0799  0.2894
    2PHE    SC1 3553  11.516  12.000   3.004 -0.1417 -0.0229  0.3020
    2PHE    SC2 3554  11.315  11.867   2.881  0.0856 -0.1745  0.0855
    2PHE    SC3 3555  11.536  11.937   2.743  0.2599 -0.1654  0.3604
    1GLY     BB 3556  12.266  16.033   4.124  0.0073  0.0982  0.1392
    2PHE     BB 3557  12.447  16.012   3.966  0.3097 -0.1052  0.2708
    2PHE    SC1 3558  12.418  15.834   3.667  0.2280 -0.2984 -0.1631
    2PHE    SC2 3559  12.506  15.789   3.416  0.2981  0.1590 -0.2293
    2PHE    SC3 3560  12.257  15.885   3.456  0.1659 -0.2222 -0.0984
    1GLY     BB 3561  12.748  15.338   6.551  0.1584 -0.0374 -0.0656
    2PHE     BB 3562  12.918  15.308   6.310 -0.0667 -0.0258 -0.0659
    2PHE    SC1 3563  13.193  15.191   6.235  0.2464  0.1611  0.0610
    2PHE    SC2 3564  13.411  15.033   6.216  0.0242 -0.1720  0.2002
    2PHE    SC3 3565  13.422  15.288   6.128  0.4349 -0.2136  0.1085
    1GLY     BB 3566   7.240  12.533   7.517  0.2715 -0.1324  0.1704
    2PHE     BB 3567   7.303  12.761   7.420  0.0861  0.0644 -0.0490
    2PHE    SC1 3568   7.506  12.958   7.544  0.0712  0.1607 -0.1305
    2PHE    SC2 3569   7.583  13.216   7.525  0.2807  0.1243  0.1694
    2PHE    SC3 3570   7.570  13.096   7.767  0.0038 -0.0942  0.0507
    1GLY     BB 3571  14.062  12.997   4.720 -0.0195 -0.2469 -0.0989
    2PHE     BB 3572  14.239  12.921   4.851  0.1223  0.0799 -0.0496
    2PHE    SC1 3573  14.513  13.041   4.789  0.0359 -0.0801  0.2371
    2PHE    SC2 3574  14.666  13.253   4.858 -0.2317  0.1045  0.2788
    2PHE    SC3 3575  14.750  13.083   4.666 -0.0984  0.3579  0.1065
    1GLY     BB 3576  11.315  15.524   2.850  0.1408  0.1221 -0.0777
    2PHE     BB 3577  11.040  15.545   2.998  0.3258  0.0084 -0.1920
    2PHE    SC1 3578  11.063  15.790   3.170  0.3143  0.1317 -0.1184
    2PHE    SC2 3579  11.016  15.971   3.365 -0.0104 -0.1002  0.0286
    2PHE    SC3 3580  11.125  16.049   3.130  0.2524  0.2071  0.2446
    1GLY     BB 3581  11.355   4.332   1.813  0.1055  0.0579  0.1605
    2PHE     BB 3582  11.200   4.110   1.913 -0.1003 -0.1178  0.0867
    2PHE    SC1 3583  11.127   3.871   1.709 -0.0946 -0.2296  0.1161
    2PHE    SC2 3584  11.077   3.755   1.471  0.1502 -0.4032  0.1453
    2PHE    SC3 3585  11.162   3.605   1.679 -0.0716 -0.2553  0.3480
    1GLY     BB 3586   3.110   3.358   2.703 -0.0326  0.2756  0.1943
    2PHE     BB 3587   3.310   3.207   2.862  0.0500  0.0040 -0.3952
    2PHE    SC1 3588   3.416   3.015   3.053 -0.2474 -0.1147  0.0374
    2PHE    SC2 3589   3.456   2.775   3.170  0.1425 -0.0210  0.1104
    2PHE    SC3 3590   3.612   2.852   2.964 -0.1354  0.0749 -0.0698
    1GLY     BB 3591  12.636   0.076   0.513  0.1034  0.0766  0.0168
    2PHE     BB 3592  12.876  -0.023   0.520  0.1309 -0.1499  0.2912
    2PHE    SC1 3593  13.141   0.068   0.370 -0.0654 -0.0768  0.0547
    2PHE    SC2 3594  13.386   0.142   0.459  0.0095 -0.0772 -0.1454
    2PHE    SC3 3595  13.361   0.010   0.225 -0.1998  0.1120 -0.2336
    1GLY     BB 3596   5.557  16.325   0.237 -0.2971 -0.1717 -0.0905
    2PHE     BB 3597   5.626  16.105   0.223 -0.2789 -0.0261  0.1281
    2PHE    SC1 3598   5.696  15.888   0.004  0.1794 -0.1232 -0.0544
    2PHE    SC2 3599   5.868  15.769  -0.166 -0.1479 -0.1134 -0.4052
    2PHE    SC3 3600   5.663  15.628  -0.061 -0.1351 -0.0343 -0.2726
    3W        W 3601   2.509  13.372   4.150  0.0265 -0.1330  0.3380
    4W        W 3602  11.380   7.909   6.213 -0.1022  0.0098  0.0706
    5W        W 3603   1.648  10.702   4.140 -0.0710  0.3488  0.1048
    6W        W 3604  14.407   1.922  13.148 -0.2367  0.0169 -0.0852
    7W        W 3605  13.839   5.432   8.309 -0.0542 -0.1288 -0.2858
    8W        W 3606  10.100   9.328  11.074  0.2428 -0.2241 -0.3666
    9W        W 3607   9.064   2.421   6.629 -0.0070 -0.1646 -0.0850
   10W        W 3608   4.589   0.330   4.223 -0.2100 -0.1485  0.0241
   11W        W 3609  15.605   7.621   3.272  0.1225  0.1369 -0.1067
   12W        W 3610   7.492  14.655  11.898 -0.1750 -0.0491  0.0636
   13W        W 3611  13.420   2.059   2.076  0.0000 -0.5136 -0.2307
   14W        W 3612   2.421   6.074  13.726  0.3459  0.0287 -0.0594
   15W        W 3613  10.924   1.420  10.641  0.0704  0.2909 -0.4822
   16W        W 3614   2.453  12.090   2.595  0.2758 -0.0341  0.1837
   17W        W 3615  10.712  13.882  14.682 -0.0021 -0.2437  0.1819
   18W        W 3616  11.192   0.806  11.298  0.1846  0.0139 -0.2787
   19W        W 3617   6.500  11.503   4.507  0.0510 -0.3203  0.1171
   20W        W 3618  13.430   0.860  11.874 -0.1454  0.3489  0.1732
   21W        W 3619  10.568   9.510   9.168  0.2030 -0.1009  0.0623
   22W        W 3620   1.270  15.544   2.766  0.2771  0.0495  0.2893
   23W        W 3621  10.473   6.417   8.621  0.0506 -0.1280 -0.2738
   24W        W 3622   2.752   4.864   8.890  0.0742  0.1972 -0.0613
   25W        W 3623   3.446   4.819   5.837  0.0579  0.1501  0.2290
   26W        W 3624  13.930   8.525  16.079  0.0046 -0.2283  0.0128
   27W        W 3625  10.754   7.635   2.831  0.0414 -0.0696  0.2957
   28W        W 3626   7.039   4.044   3.054 -0.1665  0.2300  0.2748
   29W        W 3627  12.569  14.675   5.079 -0.0509 -0.2109 -0.1523
   30W        W 3628  10.108   7.412  11.794  0.2116 -0.1210  0.1441
   31W        W 3629   3.029   4.015  11.130 -0.1873 -0.2263 -0.1440
   32W        W 3630   2.437   3.450   1.600  0.0640 -0.0708 -0.0572
   33W        W 3631  12.778   6.775  11.490  0.1623 -0.2179  0.2313
   34W        W 3632   3.014  11.853   7.773  0.4019 -0.1979  0.0301
   35W        W 3633   3.544  13.101  13.074  0.0535 -0.1297 -0.0915
   36W        W 3634  12.669  13.090   6.876  0.1167  0.1747 -0.2149
   37W        W 3635   2.053  11.126   5.564 -0.0770  0.0681 -0.0179
   38W        W 3636   7.114  14.057  10.296 -0.2118  0.1912 -0.0851
   39W        W 3637   0.331   6.375   1.663 -0.0461  0.2465  0.2811
   40W        W 3638  12.376   7.053   4.297  0.1780 -0.0939 -0.3193
   41W        W 3639   7.798   4.520   0.048  0.1193  0.0684 -0.4418
   42W        W 3640   0.002  16.312   9.859  0.2523 -0.2288  0.1341
   43W        W 3641   7.506   5.637   4.909  0.0249 -0.3555 -0.2457
   44W        W 3642   8.095   5.238   3.202  0.0185  0.4164  0.1480
   45W        W 3643   6.002   8.807   9.130 -0.0081  0.0576  0.0072
   46W        W 3644   0.918  11.537   2.147  0.3194  0.3974  0.3331
   47W        W 3645   5.146   9.991  15.382  0.0596  0.1653 -0.1897
   48W        W 3646   8.165   3.253   0.904 -0.0017 -0.3448  0.2275
   49W        W 3647   6.310  15.677   6.465 -0.0423  0.3231  0.1108
   50W        W 3648   9.998   8.904   2.071 -0.0061  0.0477 -0.2073
   51W        W 3649   0.988   3.588   7.360 -0.1404  0.5220  0.1358
   52W        W 3650  15.721   8.469  10.476  0.0432 -0.1307 -0.2828
   53W        W 3651   7.554   7.408   3.176  0.3344  0.1526 -0.0099
   54W        W 3652   7.634   6.574   7.087  0.1912  0.2851 -0.4352
   55W        W 3653  10.195   1.949  10.613  0.1914 -0.0594  0.0770
   56W        W 3654  13.735   4.561  16.324  0.2896 -0.0355 -0.2778
   57W        W 3655  15.579   7.945  10.566 -0.1626 -0.0378  0.0130
   58W        W 3656  15.265   8.056   4.835 -0.0803 -0.0779  0.0732
   59W        W 3657  14.528   5.643   3.441  0.1718 -0.0847  0.1648
   60W        W 3658   2.532   2.387  11.535 -0.1586 -0.1512  0.1197
   61W        W 3659   6.239   9.346   6.073  0.0136 -0.1782  0.0914
   62W        W 3660   6.938   2.430  13.817 -0.2735 -0.1801 -0.1370
   63W        W 3661  11.642   8.123  13.669 -0.0386  0.0661  0.2011
   64W        W 3662   5.871   1.489   2.140 -0.1659 -0.0342  0.0300
   65W        W 3663   4.873   6.828  11.207  0.2672 -0.1559 -0.1114
   66W        W 3664   3.760   6.204   9.824 -0.0901  0.1826  0.3034
   67W        W 3665   1.196   4.554  13.519  0.0213  0.0327 -0.2230
   68W        W 3666   5.918   9.863   0.458  0.2816 -0.2856 -0.1317
   69W        W 3667   7.247  16.381  15.085 -0.0017 -0.2098  0.3987
   70W        W 3668   3.738   2.412  16.142 -0.3647  0.0721  0.1133
   71W        W 3669   1.062  11.610   9.805  0.1800 -0.0323  0.1231
   72W        W 3670   5.045   2.794  15.119 -0.0353 -0.2149  0.1709
   73W        W 3671  10.018   4.131   0.741  0.2183  0.1105  0.0027
   74W        W 3672   6.482   9.634  13.413 -0.0307 -0.0956 -0.0940
   75W        W 3673  14.147  15.217   4.192 -0.2650  0.0794 -0.4464
   76W        W 3674   7.213   0.348   1.613 -0.1660 -0.3049  0.2203
   77W        W 3675   2.123   0.328   0.757 -0.0733 -0.0467  0.1049
   78W        W 3676  11.796   0.668  13.932  0.1462  0.1133  0.1759
   79W        W 3677   9.633   7.231  15.100 -0.1045 -0.0553 -0.0685
   80W        W 3678   7.728   3.579   8.914  0.1072 -0.2418  0.3253
   81W        W 3679   9.611   2.913  10.003 -0.0252  0.0130 -0.1069
   82W        W 3680   1.852  11.021   1.880  0.0401  0.1304 -0.0492
   83W        W 3681   9.327   5.074   4.599 -0.0186  0.3014 -0.2257
   84W        W 3682   0.185  13.141   5.196 -0.0199 -0.0957 -0.1531
   85W        W 3683  10.567   9.393  12.250 -0.1890  0.3971  0.1101
   86W        W 3684   2.498   2.094  12.192  0.3063  0.0314 -0.2528
   87W        W 3685   4.475  13.166  15.237 -0.0435 -0.2705  0.2420
   88W        W 3686  15.147  12.570   6.088  0.1148 -0.1125  0.0059
   89W        W 3687  13.460   3.216   8.749 -0.0962 -0.0424  0.0537
   90W        W 3688   6.482  14.428   5.053  0.1335  0.1009 -0.1452
   91W        W 3689   0.157  15.075   3.609  0.0062  0.4572 -0.1544
   92W        W 3690   1.886  13.821  13.958 -0.1530 -0.3318 -0.2275
   93W        W 3691  15.208   0.786   2.032  0.0807  0.1717  0.2562
   94W        W 3692  10.017   0.326   1.289 -0.1120 -0.0176  0.1325
   95W        W 3693   3.518   5.003   1.536 -0.0343 -0.1696  0.1914
   96W        W 3694   4.043   7.224   7.427  0.0569  0.0351  0.0672
   97W        W 3695   9.852   7.591  14.609  0.1511  0.1988  0.1834
   98W        W 3696  15.692  14.033  11.712  0.2131  0.3211 -0.2744
   99W        W 3697   0.560   9.753   3.503  0.1705  0.4669  0.0143
  100W        W 3698   6.505   1.102   8.333 -0.1580  0.0522  0.0831
  101W        W 3699  14.899   0.374   1.244 -0.1102  0.2065  0.3817
  102W        W 3700  14.286  10.005  11.901  0.2078  0.3031 -0.0350
  103W        W 3701  14.452   6.055  15.809  0.2105 -0.0246  0.0272
  104W        W 3702   9.145   9.944   9.739 -0.1887 -0.2809 -0.2395
  105W        W 3703   3.241   1.710   0.902 -0.2408 -0.1114 -0.1442
  106W        W 3704   3.204  14.264   3.387  0.0657 -0.0143 -0.0626
  107W        W 3705  10.414  14.956   0.891  0.1779  0.0396  0.1417
  108W        W 3706  14.485  10.559   9.201 -0.4539  0.0087  0.1556
  109W        W 3707   8.362   0.880   6.651 -0.1161  0.1814  0.0011
  110W        W 3708   3.299   5.520  16.293 -0.1742  0.0161 -0.2207
  111W        W 3709  16.259   8.040  14.866 -0.2406 -0.2014 -0.2761
  112W        W 3710  10.546  12.482   4.034 -0.2710  0.0098  0.0097
  113W        W 3711  14.628   1.891  16.183 -0.2738 -0.0006  0.1651
  114W        W 3712  12.871  14.312   7.449  0.2949  0.1787 -0.0451
  115W        W 3713  13.566   4.669   3.718  0.2164  0.2724  0.2818
  116W        W 3714  11.205  15.220   0.067 -0.1409 -0.3309 -0.2145
  117W        W 3715   2.763  16.161   5.540 -0.1368 -0.0411 -0.1444
  118W        W 3716   7.083   0.996  14.461  0.0090  0.1038 -0.1516
  119W        W 3717  13.861  13.413   3.487  0.1006 -0.2559 -0.4453
  120W        W 3718  14.485   4.984  11.949 -0.0828  0.2356 -0.0902
  121W        W 3719   8.916  13.776   7.681  0.2522 -0.0770  0.1339
  122W        W 3720   6.026   0.570   6.053  0.0073 -0.1827  0.2289
  123W        W 3721   2.742   4.023   7.801  0.1813 -0.0614 -0.2251
  124W        W 3722   3.435   9.946  14.168  0.1004 -0.1537  0.5340
  125W        W 3723   8.947   6.170  13.938 -0.0384  0.0159 -0.0143
  126W        W 3724   8.400   8.172   9.866  0.3197 -0.3317  0.1571
  127W        W 3725   9.616   2.611   2.371 -0.1296  0.1035  0.0791
  128W        W 3726   7.712   9.653  14.878 -0.0719 -0.2196  0.0180
  129W        W 3727   4.143   9.824   8.285 -0.0818 -0.3729  0.0891
  130W        W 3728   2.532  16.326   2.125  0.0395 -0.0412 -0.0270
  131W        W 3729  15.851   1.228   3.626  0.2204 -0.0090  0.0425
  132W        W 3730  12.775   5.099   5.509 -0.1828 -0.0984  0.0868
  133W        W 3731   5.970   5.114   0.698 -0.1336  0.0078  0.2626
  134W        W 3732  10.481  13.078   8.645  0.0133  0.1379  0.3972
  135W        W 3733   0.978   9.156   0.611  0.0316 -0.3508 -0.0021
  136W        W 3734  15.650   7.659   9.731  0.2128 -0.0554  0.2983
  137W        W 3735  14.936   2.807  14.738 -0.3876  0.2504 -0.2463
  138W        W 3736   0.952   7.886   9.518  0.0693 -0.1988 -0.1237
  139W        W 3737  10.928   9.890   7.359 -0.4114 -0.1694 -0.2356
  140W        W 3738  12.625   6.670   4.493 -0.0818 -0.3069 -0.1665
  141W        W 3739  11.267  12.234  13.141 -0.1169 -0.1349  0.0713
  142W        W 3740  10.609   9.153   2.829 -0.0013  0.1953 -0.1783
  143W        W 3741  12.894   3.389   5.089 -0.0599 -0.1021 -0.0631
  144W        W 3742  11.901   7.592   5.031 -0.1561 -0.3571  0.0403
  145W        W 3743   3.429   0.902   6.933 -0.1714  0.0583  0.1737
  146W        W 3744   7.611   7.766   0.040  0.1916  0.1138 -0.0574
  147W        W 3745   7.100  15.632  12.048  0.0069 -0.1037 -0.0972
  148W        W 3746   3.780  10.816   3.129 -0.3292 -0.0470 -0.0499
  149W        W 3747  12.729   5.086   1.683 -0.1038 -0.0895  0.0526
  150W        W 3748   5.071  14.646   4.380  0.0271  0.0309  0.3684
  151W        W 3749   6.714   5.170   3.794  0.0400  0.2645  0.2428
  152W        W 3750  13.994  12.178   1.109  0.1111  0.3541 -0.0240
  153W        W 3751  11.852  14.252   9.438  0.3113  0.0169  0.2005
  154W        W 3752   5.889   9.418   7.399 -0.3124  0.3317  0.2121
  155W        W 3753  12.760  10.689  11.324 -0.0255 -0.0247  0.0178
  156W        W 3754   0.350  14.013  12.078 -0.2084 -0.0101  0.2924
  157W        W 3755   7.752   8.187   4.874 -0.0043 -0.0664  0.0293
  158W        W 3756  13.051  15.726  11.599  0.1489 -0.0573  0.0753
  159W        W 3757   3.320   8.323   2.185 -0.0935 -0.1083 -0.1585
  160W        W 3758   1.803   3.192   7.387  0.2692 -0.3046 -0.1792
  161W        W 3759  15.076  12.612  10.277 -0.2555  0.0819  0.1031
  162W        W 3760  11.283  11.332   0.650 -0.4334 -0.2317  0.3061
  163W        W 3761   8.013  12.644  15.921 -0.0263 -0.1950  0.0864
  164W        W 3762   2.782   4.870   1.330 -0.1699 -0.0855 -0.3364
  165W        W 3763   9.128  11.971   2.750 -0.0746 -0.2409  0.0713
  166W        W 3764  15.697   0.803   1.804  0.3496  0.3926 -0.0397
  167W        W 3765   0.571   8.073  12.037  0.1370  0.2710 -0.0707
  168W        W 3766  15.249  14.972   2.207 -0.2419 -0.0047  0.2313
  169W        W 3767   4.435   3.925  14.757  0.1489 -0.1856 -0.1340
  170W        W 3768  10.141   7.114  14.621  0.2407  0.0906 -0.0169
  171W        W 3769  11.065   4.079   1.072 -0.1965  0.0545  0.0346
  172W        W 3770   9.861   8.342   0.704 -0.0254 -0.1660 -0.0232
  173W        W 3771   3.640   9.576   9.073 -0.0437  0.1617 -0.3538
  174W        W 3772   1.720  10.328  15.559  0.0909 -0.0924 -0.2287
  175W        W 3773   8.846  13.520   4.606  0.1584  0.0469  0.0358
  176W        W 3774   6.021   6.242   7.829 -0.1353 -0.0142 -0.0500
  177W        W 3775  12.540   0.382   8.918 -0.4170 -0.2658  0.0710
  178W        W 3776  15.284  10.305  15.242 -0.4117  0.5100  0.2726
  179W        W 3777  10.669  11.570   4.138 -0.2060  0.1120  0.0347
  180W        W 3778   6.858   9.352   2.915 -0.0067  0.0617  0.1063
  181W        W 3779   8.039   8.746  14.399  0.0870 -0.1112  0.1681
  182W        W 3780  12.199   8.275   6.662  0.0748  0.0357 -0.4552
  183W        W 3781   8.370   9.876  13.266 -0.4165  0.2245  0.0437
  184W        W 3782   3.749  13.242   5.415 -0.3181 -0.1890  0.1756
  185W        W 3783   8.439   4.521   3.309  0.1725  0.2112 -0.0540
  186W        W 3784   5.892  12.160   3.268 -0.1499  0.0894  0.0137
  187W        W 3785   0.658  15.990   4.061  0.0385  0.3447 -0.2971
  188W        W 3786   4.252  11.169   8.313  0.0923 -0.1391 -0.1236
  189W        W 3787   0.135   4.647   5.525  0.5866 -0.3670 -0.1041
  190W        W 3788   8.573  15.223  12.159  0.2443  0.0635  0.0668
  191W        W 3789  10.569  13.979   7.594  0.2599 -0.2278 -0.2374
  192W        W 3790   9.176   6.341   5.132 -0.1888  0.1573 -0.2293
  193W        W 3791  12.606   7.951   6.617 -0.1006  0.0304  0.3725
  194W        W 3792   3.805  10.344   8.552  0.1090  0.2202 -0.1829
  195W        W 3793  10.803  10.584   8.164 -0.2355  0.0217 -0.1545
  196W        W 3794   7.025  10.530   0.122 -0.1806 -0.2408  0.2355
  197W        W 3795  10.230  12.964   7.558 -0.0867 -0.3616  0.0757
  198W        W 3796   1.561  11.815  15.765  0.0793  0.0435 -0.1201
  199W        W 3797  11.268   2.345   0.061 -0.2688 -0.1777  0.0882
  200W        W 3798  13.326   7.583   5.570 -0.1187 -0.0489  0.1109
  201W        W 3799   8.597   8.268   6.777 -0.0610 -0.1552 -0.2370
  202W        W 3800   3.331   9.109   8.707  0.0502  0.3219 -0.2107
  203W        W 3801   2.660   9.040  12.878 -0.3645 -0.4073 -0.1167
  204W        W 3802   8.132  13.545   1.625 -0.1093  0.1650 -0.1779
  205W        W 3803  15.448  11.178   1.215  0.0826  0.0794 -0.4308
  206W        W 3804  12.446  14.560   5.863  0.1700 -0.3829 -0.0661
  207W        W 3805  11.567  15.470  10.726 -0.0108 -0.0282  0.3566
  208W        W 3806  12.445  14.175  10.371 -0.2409 -0.0246 -0.0121
  209W        W 3807  11.305  14.433   4.804  0.2186 -0.1193  0.2992
  210W        W 3808   7.771   0.434  11.772 -0.1124  0.0576  0.1506
  211W        W 3809  15.402   0.739  10.048  0.1641  0.0663 -0.3604
  212W        W 3810   8.436  13.969   7.494  0.2254  0.0976  0.0703
  213W        W 3811   4.518  10.990  13.379  0.0718  0.2514  0.0476
  214W        W 3812   6.790  12.535   8.929  0.2260  0.0049 -0.0819
  215W        W 3813  12.345  14.435   6.846 -0.1705  0.1940  0.1321
  216W        W 3814  10.143   3.893   1.720 -0.2100  0.1620 -0.1834
  217W        W 3815   3.673   6.992   8.782  0.1365  0.0662  0.0073
  218W        W 3816   8.118   5.185   9.317  0.2209 -0.2256  0.1917
  219W        W 3817  12.171   9.482   0.360 -0.1269  0.0244 -0.0648
  220W        W 3818   4.653   5.286   7.755  0.0526 -0.1229 -0.1063
  221W        W 3819  15.093   0.855   5.463 -0.1874  0.1275 -0.1639
  222W        W 3820   2.646  15.511   6.772  0.2444 -0.0998 -0.0603
  223W        W 3821   8.101  11.650   3.909 -0.0863  0.2116  0.0023
  224W        W 3822  15.172   8.738   3.054 -0.0714  0.0548  0.4127
  225W        W 3823  10.380  15.101   6.732  0.0830 -0.0694  0.1411
  226W        W 3824   2.614   7.929  13.198  0.1953  0.3587  0.3019
  227W        W 3825   8.698   8.204   2.025 -0.1480 -0.1270  0.2931
  228W        W 3826  12.382  10.083   9.392 -0.1193 -0.2078 -0.2180
  229W        W 3827  13.849  13.662   0.461 -0.1334 -0.0131  0.0109
  230W        W 3828   2.699  16.323  15.952 -0.2590 -0.1390  0.0610
  231W        W 3829  12.391  13.229   8.785  0.0579  0.0616 -0.2068
  232W        W 3830   3.083  10.274   5.037 -0.1072 -0.1722  0.0106
  233W        W 3831  11.591  13.760   7.836 -0.0202  0.3897 -0.0416
  234W        W 3832   7.799  14.249   5.440  0.3351 -0.2424  0.0007
  235W        W 3833   3.765  11.321   9.619  0.0573 -0.1451  0.0937
  236W        W 3834  10.368  13.409  14.846  0.1144 -0.1664 -0.2867
  237W        W 3835  16.319   6.984   4.652  0.4229 -0.0267 -0.0576
  238W        W 3836  16.234   9.175   1.098 -0.0715 -0.0920  0.3870
  239W        W 3837  13.131   0.353  16.308 -0.0925 -0.3323  0.1329
  240W        W 3838   6.122   4.194  14.082  0.2047  0.0179 -0.2318
  241W        W 3839  13.773  15.905  12.778 -0.2067 -0.0512  0.0087
  242W        W 3840   6.286  16.159  15.132  0.0145 -0.3484 -0.1728
  243W        W 3841  12.740   6.328   6.618  0.0770 -0.0283  0.2072
  244W        W 3842  14.902   4.181  14.037 -0.3418 -0.0330  0.1039
  245W        W 3843   9.799  11.606  12.700  0.0259 -0.2621 -0.0013
  246W        W 3844  14.252   3.585   7.681  0.0469  0.0750 -0.1873
  247W        W 3845  14.611  13.904   3.866  0.0383  0.1254 -0.2207
  248W        W 3846  12.813   8.016   1.422  0.1095  0.1116 -0.2816
  249W        W 3847   7.397  10.478  12.617 -0.2953 -0.3361  0.2125
  250W        W 3848  16.041  12.539   1.003 -0.0632  0.0647  0.1511
  251W        W 3849   2.607  10.967  14.191  0.3589  0.0660 -0.1839
  252W        W 3850   3.731   9.468   6.958  0.0470 -0.0579  0.0606
  253W        W 3851  12.349   1.929   3.267 -0.3372  0.2588  0.2549
  254W        W 3852   2.916   2.198  11.934 -0.1350 -0.0094 -0.0075
  255W        W 3853   4.552  13.512  14.297 -0.0773 -0.3359 -0.3247
  256W        W 3854   2.325  15.222   7.162  0.0884 -0.3380 -0.0673
  257W        W 3855   5.499   2.594  13.202 -0.0208 -0.0262  0.2191
  258W        W 3856   8.139  15.284  16.159 -0.1194  0.0003 -0.2217
  259W        W 3857  16.290  12.352   6.301  0.1695  0.0602  0.0056
  260W        W 3858   5.801  15.499  12.805 -0.1461  0.0277  0.2252
  261W        W 3859  16.066  15.911  12.835  0.2290  0.6365 -0.1581
  262W        W 3860  12.116   6.840   2.969 -0.1675 -0.0602  0.0285
  263W        W 3861   5.441   2.520   4.445 -0.0479  0.2596  0.0431
  264W        W 3862   6.884   6.856   2.827  0.1639 -0.0724  0.2291
  265W        W 3863   0.200  11.581   6.365  0.1178 -0.1268  0.0974
  266W        W 3864   0.641   5.873   8.486 -0.1881  0.3215 -0.2575
  267W        W 3865  16.031  16.387  10.972  0.0646 -0.1781  0.2066
  268W        W 3866  13.452   6.273   8.367  0.2473 -0.3094  0.3296
  269W        W 3867   0.320   7.291   6.339  0.3007 -0.0694 -0.0752
  270W        W 3868   9.036  11.385  15.948  0.2431 -0.1281 -0.0591
  271W        W 3869   9.983   6.358   6.056 -0.0102 -0.2438 -0.1061
  272W        W 3870   5.437   1.806   8.543  0.0686  0.1346 -0.0275
  273W        W 3871   0.002   1.181   8.470  0.0759 -0.0881  0.3341
  274W        W 3872   4.841   4.480   1.220 -0.1712  0.1412  0.2438
  275W        W 3873   7.019  10.371  10.909  0.3916 -0.1325  0.1940
  276W        W 3874   3.203  11.560   6.968  0.2949 -0.0537  0.1238
  277W        W 3875  16.184   9.103   0.097  0.0590 -0.0768  0.0346
  278W        W 3876  16.108   8.371  11.399  0.2243 -0.3214 -0.3019
  279W        W 3877   3.029   7.218  10.840 -0.1920 -0.0516 -0.0849
  280W        W 3878   6.163   9.836   9.099 -0.2609  0.2234  0.2276
  281W        W 3879  14.339   4.582  11.643  0.0283  0.0937  0.0506
  282W        W 3880  13.620  15.738  14.597  0.0731 -0.1076  0.1140
  283W        W 3881  11.927   8.160   4.190 -0.3352  0.1531  0.1245
  284W        W 3882  11.462   7.047  15.607 -0.0013 -0.2914  0.2096
  285W        W 3883   2.454  13.449   2.196  0.0727  0.2727  0.1720
  286W        W 3884  12.742  12.895   7.310  0.1921  0.1649 -0.0536
  287W        W 3885   5.689  14.198  14.318 -0.1419 -0.0315  0.0791
  288W        W 3886  12.276   4.034  10.631 -0.0365  0.0200  0.1460
  289W        W 3887  13.269  12.162  10.553 -0.2366  0.2124  0.3285
  290W        W 3888  12.153   1.996  13.211 -0.0168 -0.2137  0.2079
  291W        W 3889   7.286   3.455   0.497  0.1416  0.0651 -0.1986
  292W        W 3890   4.205   0.199   8.318  0.1281  0.1064 -0.1947
  293W        W 3891   5.192   7.408   2.119 -0.1471 -0.1181  0.1568
  294W        W 3892   5.070  12.149   7.809  0.1863  0.1537  0.0355
  295W        W 3893  11.932  12.923   7.523 -0.4310  0.0486 -0.1757
  296W        W 3894  10.268   9.492   6.953  0.1495 -0.3968  0.2159
  297W        W 3895   2.436  10.048   9.870 -0.0427 -0.1057  0.0865
  298W        W 3896   2.860  11.181   1.242 -0.1095  0.2591  0.2065
  299W        W 3897   2.231   8.544   2.546 -0.1515  0.0598 -0.4332
  300W        W 3898  15.743   0.888   3.263  0.0580  0.0267  0.0849
  301W        W 3899  14.619  16.157  13.306  0.0865 -0.2957  0.2733
  302W        W 3900   0.655  13.133   3.799  0.0191  0.0108  0.0010
  303W        W 3901   8.105   0.036  15.237  0.0954 -0.0115 -0.3558
  304W        W 3902   3.694   2.571  15.186 -0.2111 -0.0566 -0.1104
  305W        W 3903   5.574  13.464   8.042  0.2610 -0.0672 -0.1469
  306W        W 3904   4.461  13.366  16.163  0.2822 -0.2388  0.0160
  307W        W 3905  14.391   8.215  11.903  0.0581  0.1577  0.0121
  308W        W 3906  14.695   7.602  14.328 -0.3163 -0.1022  0.0790
  309W        W 3907   3.113   8.441   1.769  0.0088 -0.0389 -0.0439
  310W        W 3908   0.107   1.742   1.331  0.1183 -0.0957  0.1569
  311W        W 3909  10.828   6.152  11.689  0.1843  0.2239  0.1155
  312W        W 3910  13.771   7.629   7.920 -0.0109  0.0279  0.0809
  313W        W 3911   9.929   2.788  15.840  0.1218  0.3961 -0.0295
  314W        W 3912   7.597   5.062   4.032 -0.1711  0.3153 -0.3070
  315W        W 3913  15.371  13.909   7.708  0.0308 -0.0353  0.2589
  316W        W 3914   7.548   3.376   3.533 -0.1296  0.0095 -0.0587
  317W        W 3915  10.392   5.619   5.361  0.0549  0.3060  0.3544
  318W        W 3916  13.458   3.004   6.458  0.0753  0.0044  0.1275
  319W        W 3917  10.411   3.738   0.821 -0.1487 -0.0227  0.0838
  320W        W 3918   2.662  15.011  14.109 -0.0477 -0.1447  0.1626
  321W        W 3919  15.797  10.829   2.850 -0.1094  0.0188 -0.0420
  322W        W 3920   2.478   5.935   0.382 -0.1617 -0.0685  0.3333
  323W        W 3921   3.032  10.038   4.413 -0.0117 -0.1928  0.3720
  324W        W 3922  13.924  13.161   1.316 -0.1774  0.0204 -0.0221
  325W        W 3923  13.193   2.398   0.787  0.3323 -0.5481  0.0951
  326W        W 3924  11.736   3.403   2.921 -0.0336 -0.1330  0.4017
  327W        W 3925   7.541   8.081   9.815 -0.0297 -0.1119  0.2127
  328W        W 3926   8.009   4.889   5.932 -0.1668 -0.0920  0.0144
  329W        W 3927   8.728  12.428  12.464  0.0351  0.1342 -0.3907
  330W        W 3928   8.573  11.769   6.877  0.2013 -0.0279 -0.2002
  331W        W 3929   6.293  10.108   9.485 -0.0583  0.0985  0.0902
  332W        W 3930   8.028   7.214  12.601 -0.0573 -0.1036  0.0125
  333W        W 3931  12.028  12.374   1.058 -0.0928  0.0708 -0.1552
  334W        W 3932   0.234   2.325   4.020 -0.1121  0.1220 -0.0347
  335W        W 3933  10.495   9.059  13.218 -0.0701  0.1714 -0.3355
  336W        W 3934  11.485   1.727  13.089 -0.1049 -0.0835  0.0899
  337W        W 3935  15.527  11.432  12.281  0.1680 -0.0729  0.1159
  338W        W 3936  10.862  16.283   7.521  0.1035  0.2869 -0.0630
  339W        W 3937   8.988   7.443  12.391 -0.0422 -0.1337  0.4308
  340W        W 3938  11.142  10.227   8.349 -0.1066 -0.3107 -0.0616
  341W        W 3939   3.903   9.375  14.544  0.3778  0.0882  0.0007
  342W        W 3940   3.467   9.274  10.434 -0.0964  0.0546 -0.0950
  343W        W 3941   8.023   9.486  10.361  0.3078  0.1333  0.0003
  344W        W 3942  12.542  10.495  15.736  0.1512  0.1456  0.2937
  345W        W 3943   8.129  13.103  10.637  0.0234  0.0245 -0.0726
  346W        W 3944  11.877   7.271   6.811  0.1718 -0.0106  0.0349
  347W        W 3945   7.115  14.900   2.521  0.2350 -0.0333 -0.1887
  348W        W 3946   6.219  14.268  14.182 -0.1209  0.1116 -0.2656
  349W        W 3947   5.047   0.435   4.576 -0.0542 -0.0296  0.1010
  350W        W 3948   5.417  12.561   1.029 -0.0550 -0.1573 -0.6062
  351W        W 3949   3.735   2.788  10.902 -0.0645  0.3095 -0.0269
  352W        W 3950   4.170   7.915   9.045 -0.0363  0.0074  0.0733
  353W        W 3951   0.309  12.173   4.644 -0.2241 -0.0884 -0.0638
  354W        W 3952   3.067  10.726  14.035  0.1441 -0.1541  0.0042
  355W        W 3953  11.430   8.911   3.965 -0.1190 -0.1148 -0.2762
  356W        W 3954  13.847   5.488   4.703  0.2074  0.0572 -0.1247
  357W        W 3955   1.569   6.970  12.082 -0.1047 -0.1094  0.1121
  358W        W 3956   2.556   0.623   3.787  0.2318 -0.0549  0.0738
  359W        W 3957   8.694   2.038   9.525  0.0209 -0.1568 -0.1377
  360W        W 3958  13.710   4.402   6.315 -0.2498 -0.1664 -0.1988
  361W        W 3959   0.738   2.244   6.966 -0.1606 -0.2189 -0.1050
  362W        W 3960  14.698   8.834   1.249  0.1678 -0.0591  0.0814
  363W        W 3961   9.860  14.654   9.077 -0.0844 -0.1671 -0.1273
  364W        W 3962   8.580   7.306   4.484  0.0636  0.2789  0.0701
  365W        W 3963   6.050   8.529  14.741  0.2008  0.1085  0.0353
  366W        W 3964   3.949  11.916  12.073  0.3677 -0.1749  0.1976
  367W        W 3965   5.012   3.028   6.394 -0.2640  0.1793  0.0624
  368W        W 3966   5.872  12.307   0.932  0.2407  0.1669  0.1187
  369W        W 3967  15.946  14.128  16.190 -0.1216 -0.1461 -0.0217
  370W        W 3968   0.010  15.586   4.539 -0.0360 -0.0700  0.1279
  371W        W 3969   7.645   8.860   4.810 -0.0537  0.0185  0.4029
  372W        W 3970   4.490   2.185  13.562  0.1835  0.1525 -0.2603
  373W        W 3971  12.708   6.302  13.230  0.1178 -0.1558  0.0190
  374W        W 3972  15.905  12.518  16.152 -0.0803 -0.1474  0.1648
  375W        W 3973  11.463   1.208   8.562  0.3837 -0.0740  0.3021
  376W        W 3974   6.325   1.959  11.593  0.0875 -0.0471 -0.1057
  377W        W 3975  15.176  13.275  11.419  0.0632  0.0499  0.0733
  378W        W 3976   4.388  11.649   6.768 -0.2972 -0.2283 -0.2644
  379W        W 3977   9.303  11.140  10.353  0.0873 -0.0176 -0.3660
  380W        W 3978  13.390   6.759  13.626  0.1720  0.2301  0.0829
  381W        W 3979   2.259   8.456   3.119 -0.1137 -0.0923  0.3029
  382W        W 3980  12.163   6.431  10.633  0.0167  0.0630  0.0729
  383W        W 3981   8.819   0.706   9.136 -0.0858 -0.0999 -0.3133
  384W        W 3982   6.185   5.010   5.687 -0.0177 -0.0367  0.0903
  385W        W 3983   4.455   9.058  14.247  0.2889  0.0772 -0.0980
  386W        W 3984  15.964   4.656   6.658 -0.2706  0.0072 -0.0223
  387W        W 3985   6.540   4.768   7.260 -0.1523  0.1224  0.0521
  388W        W 3986   1.370  14.933  13.349 -0.1214  0.0568  0.0356
  389W        W 3987   5.442  12.123   4.921 -0.1693 -0.0491 -0.2556
  390W        W 3988  10.788  14.587  11.290  0.2160  0.1424 -0.0844
  391W        W 3989   7.347   1.016   4.126 -0.2473  0.2863  0.0624
  392W        W 3990  11.032   7.812   9.419  0.0233 -0.1454 -0.2243
  393W        W 3991   8.952  16.201   9.562 -0.0078  0.1350  0.0711
  394W        W 3992  15.790  13.510  14.996  0.2510  0.0930 -0.1629
  395W        W 3993  13.529  13.557  12.187 -0.2765  0.1110 -0.1960
  396W        W 3994  12.371   4.765   9.334  0.4126 -0.1420  0.3098
  397W        W 3995  12.975   2.377   8.812 -0.1042  0.0301  0.3186
  398W        W 3996   1.802  11.558   1.399 -0.0349  0.4604 -0.3702
  399W        W 3997   0.140   7.324   3.355  0.1573 -0.0163  0.0040
  400W        W 3998  15.717   1.136   7.152  0.0059 -0.0686  0.1075
  401W        W 3999   9.645   5.134   4.200  0.2671  0.0009  0.0965
  402W        W 4000  12.710  13.094   1.537  0.2513  0.1269 -0.1515
  403W        W 4001  10.085   9.019   2.940  0.1633  0.0814  0.1196
  404W        W 4002  11.997  14.083   5.118 -0.0838 -0.1553  0.1014
  405W        W 4003  11.669   8.030   8.646 -0.0307  0.0484  0.0712
  406W        W 4004   6.796   3.955   7.992  0.1503 -0.0270 -0.1331
  407W        W 4005   3.194  12.547   9.802 -0.1876 -0.0608 -0.0162
  408W        W 4006  10.275   9.857   8.803 -0.1151 -0.1081 -0.0279
  409W        W 4007  10.396   6.541  12.812 -0.0153 -0.1161 -0.2578
  410W        W 4008   3.201   9.778   8.573 -0.3005 -0.1056  0.0185
  411W        W 4009   5.211  14.430  12.004  0.0239  0.2607  0.0241
  412W        W 4010  15.585   9.115  11.025  0.0850 -0.1254  0.2245
  413W        W 4011   0.957   4.871   1.591 -0.4501 -0.4428  0.2360
  414W        W 4012   1.224   4.738   7.375 -0.3816 -0.0751  0.2859
  415W        W 4013  13.220  15.894   4.424 -0.2992  0.1748  0.2592
  416W        W 4014   6.997   1.459  15.655  0.0235 -0.0643  0.2497
  417W        W 4015   6.674   1.204  13.131  0.0647  0.0587 -0.0606
  418W        W 4016  16.310  13.685   6.606 -0.1063 -0.1873  0.0448
  419W        W 4017   9.733  15.483   5.533 -0.1685 -0.1905  0.0114
  420W        W 4018   0.211   8.268  13.585  0.0012  0.3754  0.0848
  421W        W 4019   4.706   2.355  10.357  0.3706  0.3643  0.0462
  422W        W 4020   4.131  10.465   3.379 -0.0109  0.0402 -0.0798
  423W        W 4021   6.582   0.678  15.352 -0.3255 -0.0152 -0.0528
  424W        W 4022   2.062   8.086  16.165 -0.1151  0.0182  0.2644
  425W        W 4023   7.097   7.727   1.688 -0.0939  0.4014  0.0483
  426W        W 4024   5.369   4.200  14.978 -0.0460  0.3253 -0.0495
  427W        W 4025   7.284   2.997  11.156 -0.3952  0.0988  0.4349
  428W        W 4026   1.978   0.997   9.991  0.1261 -0.0154 -0.5993
  429W        W 4027   4.829   4.819   7.636  0.1824 -0.0615  0.3524
  430W        W 4028  10.907  13.189  12.131 -0.2111 -0.1832 -0.2458
  431W        W 4029   3.601  12.785   6.955 -0.1938 -0.2143  0.0337
  432W        W 4030  13.724   8.214   1.797  0.2409  0.0223 -0.1880
  433W        W 4031  12.517  12.851  11.452  0.1638  0.2823 -0.1384
  434W        W 4032  14.767   6.598   8.942  0.1939 -0.1265 -0.0069
  435W        W 4033   7.368   0.060   2.544 -0.4318  0.2804  0.2318
  436W        W 4034   5.928   5.437  11.041 -0.1409 -0.1550  0.0998
  437W        W 4035  14.123   3.789   0.992 -0.0253 -0.0449  0.0074
  438W        W 4036   8.754  14.272   5.705  0.1350 -0.1714 -0.2759
  439W        W 4037   7.724  12.776   5.353  0.1304  0.0090  0.0970
  440W        W 4038  15.814   1.987   6.755 -0.3820 -0.0021  0.0131
  441W        W 4039   9.809   4.600   2.337 -0.2481  0.1401  0.1634
  442W        W 4040   0.040  12.521   4.348  0.2806  0.1188 -0.0103
  443W        W 4041  14.925   2.673   9.012  0.1708  0.3706  0.0313
  444W        W 4042   3.608   6.308   0.956 -0.1571  0.1029  0.0239
  445W        W 4043   1.554   7.937   3.367  0.3580  0.2840  0.1452
  446W        W 4044   9.844   4.987  12.221 -0.3437 -0.2366 -0.2723
  447W        W 4045   6.081   3.673   6.854  0.0084 -0.0672  0.1718
  448W        W 4046  10.620   4.436   3.989 -0.1867 -0.0362 -0.2878
  449W        W 4047   9.529   9.111  15.740 -0.1907  0.1371  0.0719
  450W        W 4048   8.627   8.055   3.280 -0.0179  0.0678  0.0294
  451W        W 4049   1.208   7.634  10.425 -0.0919 -0.0395  0.0460
  452W        W 4050   9.224   3.589   7.946 -0.1511 -0.1565 -0.0190
  453W        W 4051   6.072  11.492   1.926  0.2185  0.0362  0.5487
  454W        W 4052   9.324   6.407   5.613  0.1742  0.0727  0.2928
  455W        W 4053  13.855   7.174   7.703 -0.3573  0.1807 -0.0699
  456W        W 4054  11.807  13.550   5.880 -0.0443  0.1395 -0.0056
  457W        W 4055   0.668   2.643   6.694 -0.0975  0.0249  0.0784
  458W        W 4056   2.385   3.673   5.352  0.0952  0.0402 -0.0118
  459W        W 4057   8.328  13.666   7.026  0.1494  0.1471  0.4822
  460W        W 4058   1.381  10.597   7.667 -0.0249 -0.0875  0.2476
  461W        W 4059  14.856   9.723   1.918 -0.0732  0.3573 -0.0340
  462W        W 4060   1.140   3.835  16.159 -0.1049  0.0787 -0.0351
  463W        W 4061   0.063   2.524   9.020  0.4028 -0.0930 -0.3064
  464W        W 4062  13.231   8.782   3.163  0.1861  0.1084  0.0564
  465W        W 4063   1.020   8.412   8.195 -0.0990 -0.0933  0.0742
  466W        W 4064   1.936   7.109   9.719 -0.0709 -0.5207 -0.1597
  467W        W 4065  13.359  11.417  12.423 -0.2342  0.1252  0.0484
  468W        W 4066  10.180  14.605  14.654  0.3230 -0.0847 -0.0806
  469W        W 4067   6.659   4.560  12.953  0.0725  0.1530 -0.0624
  470W        W 4068  12.888   8.560  13.411  0.4960 -0.2149 -0.0131
  471W        W 4069   9.832   6.300   1.644 -0.2637 -0.0638 -0.2550
  472W        W 4070  14.508  10.431   2.077 -0.1505  0.2431  0.2500
  473W        W 4071   4.851   8.335  11.948  0.3131  0.0912 -0.2058
  474W        W 4072   8.459   1.599  15.811  0.2372  0.2327  0.2310
  475W        W 4073   8.051  10.902   6.941 -0.0737  0.1458 -0.0614
  476W        W 4074  15.695  13.378   4.892 -0.1252  0.1695  0.3102
  477W        W 4075   1.206   3.376   1.426  0.0213 -0.0075  0.4655
  478W        W 4076   3.302  12.750  12.735 -0.1065  0.2679 -0.1664
  479W        W 4077   1.070  13.403   0.440  0.3557 -0.0091 -0.0256
  480W        W 4078   1.875   2.246   1.303 -0.4673  0.0993  0.1797
  481W        W 4079   3.903  11.128   2.098  0.0067 -0.1050 -0.0636
  482W        W 4080   3.122   3.934  12.013  0.3706  0.0536 -0.1742
  483W        W 4081  10.377  13.010  12.386 -0.0297 -0.4799 -0.0018
  484W        W 4082   6.760   1.283  12.275 -0.0607  0.1516 -0.2331
  485W        W 4083   6.562  14.221  15.099 -0.0900  0.2160  0.1938
  486W        W 4084   5.241   0.005  12.025 -0.1131 -0.0779  0.0170
  487W        W 4085   6.883   4.038   4.500 -0.0856 -0.0722 -0.1393
  488W        W 4086  15.616   1.738   2.943  0.1304 -0.1770  0.0153
  489W        W 4087  14.576   6.655  14.184  0.1841 -0.2587 -0.1649
  490W        W 4088   4.208   1.947  13.106  0.0845 -0.1265 -0.2703
  491W        W 4089   7.372   3.315   1.492  0.1049  0.2000 -0.1098
  492W        W 4090   8.817   5.699   2.950  0.1747 -0.3046 -0.2137
  493W        W 4091   1.129   3.354  16.200  0.1405 -0.1748  0.0613
  494W        W 4092   8.517   9.075  11.913 -0.0904  0.2661  0.1392
  495W        W 4093   9.820   3.280  15.733 -0.3192  0.1858  0.2408
  496W        W 4094   5.853   8.067   6.695  0.2160  0.1957  0.1256
  497W        W 4095   0.939   4.948   6.622 -0.0618 -0.2127 -0.2397
  498W        W 4096   7.041  15.665   0.656  0.0719  0.0874 -0.1620
  499W        W 4097   5.530   2.090   1.108  0.0666 -0.2561  0.0956
  500W        W 4098   9.478  11.505  11.366 -0.1573 -0.1057 -0.0672
  501W        W 4099   3.716   9.524   5.097 -0.0991  0.1515 -0.2026
  502W        W 4100  15.536  14.896   4.002  0.0119 -0.0440 -0.1362
  503W        W 4101  12.643   0.940  11.944 -0.2707  0.2082 -0.0146
  504W        W 4102   8.651  11.572   2.174 -0.2092 -0.0483  0.0684
  505W        W 4103   0.665   6.247  12.645 -0.0034  0.2857  0.4177
  506W        W 4104   4.081   6.834   5.092 -0.0958  0.2293  0.2861
  507W        W 4105  14.399   8.782   6.379  0.1310 -0.0224 -0.2007
  508W        W 4106   7.578  10.465  14.289 -0.0794 -0.1083  0.1608
  509W        W 4107   3.914   7.250   2.751 -0.0949  0.0209  0.0081
  510W        W 4108   5.870   6.455   9.890  0.1220  0.1416 -0.0718
  511W        W 4109  13.270   2.894   8.359  0.0633 -0.0319 -0.1834
  512W        W 4110  11.951   5.610   3.705 -0.1540  0.0433  0.2911
  513W        W 4111   8.519  12.306  11.987 -0.1621  0.1385 -0.0602
  514W        W 4112   1.290  12.878  15.985 -0.1372 -0.1018  0.2170
  515W        W 4113  14.647   8.847   5.077  0.2008  0.0238  0.0911
  516W        W 4114  12.475  13.465  11.341  0.1320 -0.2199 -0.0577
  517W        W 4115  16.272  12.352  12.236 -0.0671  0.0519 -0.1232
  518W        W 4116   1.520   2.314   1.958 -0.1334 -0.0981 -0.2323
  519W        W 4117  15.744   8.542   6.560 -0.4472 -0.1049 -0.0278
  520W        W 4118  11.051   8.771   7.867 -0.1791  0.1335  0.0433
  521W        W 4119  15.598  13.283   8.915 -0.1240  0.0792 -0.2064
  522W        W 4120   9.995  11.910   7.913  0.1047 -0.2171 -0.0516
  523W        W 4121  12.848   9.295  10.201  0.3430  0.1085  0.2022
  524W        W 4122   7.625  11.566   7.616  0.1517  0.0979 -0.1430
  525W        W 4123   8.564   1.408   3.052 -0.2150 -0.2408  0.1209
  526W        W 4124  11.707  12.679   0.157 -0.0031 -0.1248  0.0863
  527W        W 4125  12.299   6.813  12.420 -0.3123  0.3561 -0.0036
  528W        W 4126   5.504   7.321   6.131  0.0875 -0.2044  0.1645
  529W        W 4127  12.575   6.884   7.646  0.2078 -0.4208 -0.2429
  530W        W 4128   6.875  10.124  14.780 -0.1009 -0.0579  0.0350
  531W        W 4129   7.262   6.874   4.368 -0.1390  0.1349 -0.3541
  532W        W 4130   0.672  12.120   9.307  0.1096 -0.1144  0.1638
  533W        W 4131   8.935   2.100   2.292 -0.1609 -0.1488 -0.0490
  534W        W 4132   9.112  10.828  11.000  0.1313  0.4013 -0.2387
  535W        W 4133   1.115   8.167  12.930 -0.0604 -0.1512 -0.0905
  536W        W 4134   0.407  12.364   6.634  0.3613  0.0282 -0.3171
  537W        W 4135   3.386  12.273   6.362  0.0876  0.1917 -0.0464
  538W        W 4136  15.448   1.682   6.453  0.0611 -0.1461 -0.1320
  539W        W 4137  10.667   9.946   4.291  0.0172 -0.2297 -0.2999
  540W        W 4138  13.383   6.986   3.163  0.3696  0.2316  0.2484
  541W        W 4139   2.832   5.031  11.118 -0.1728  0.0428 -0.0504
  542W        W 4140  11.112   2.641   1.578  0.1200 -0.2264 -0.1024
  543W        W 4141   2.697   8.777  13.695  0.0624  0.1366  0.0190
  544W        W 4142   4.671   7.085   1.056 -0.0907  0.1387  0.0654
  545W        W 4143  15.804  10.874  12.165  0.0216  0.0666  0.3568
  546W        W 4144  11.886   6.630  14.063 -0.1381  0.1246 -0.4636
  547W        W 4145  13.877  11.212  15.006  0.0372 -0.0143  0.0144
  548W        W 4146   8.113   1.496   3.079  0.0370  0.0819  0.0480
  549W        W 4147   5.242   5.480   0.255 -0.3042  0.1461 -0.0661
  550W        W 4148  13.580  13.190   7.326  0.1355  0.2048 -0.2671
  551W        W 4149  14.654  14.907   8.470 -0.0313 -0.0686 -0.1186
  552W        W 4150   3.578   8.494  15.555 -0.0602  0.0009 -0.1963
  553W        W 4151   6.263   7.643   3.418  0.2646  0.3111 -0.1226
  554W        W 4152   3.872   9.805   6.042  0.3816 -0.3513  0.0294
  555W        W 4153   1.063  16.033  12.572 -0.0637 -0.1341  0.0226
  556W        W 4154   4.418   7.081   4.643 -0.0494 -0.1383  0.3582
  557W        W 4155   7.700   2.438  10.610 -0.0606 -0.1122 -0.1245
  558W        W 4156   9.428  10.575   5.459  0.1574 -0.0255 -0.4259
  559W        W 4157   0.780   8.550   6.264 -0.1427 -0.4151 -0.2811
  560W        W 4158   8.374   4.285   1.596  0.1311 -0.0556 -0.0415
  561W        W 4159  14.580   4.164  10.406  0.2344  0.1272  0.2012
  562W        W 4160  10.267  13.522   9.975 -0.0791  0.1572  0.0048
  563W        W 4161   6.786   2.584   5.619 -0.1007 -0.1194 -0.0799
  564W        W 4162  14.450   0.314   7.296  0.0982 -0.1439 -0.1439
  565W        W 4163   8.026  10.636  16.262 -0.0753 -0.0856 -0.2575
  566W        W 4164   6.647  11.485   3.994 -0.0201  0.2168 -0.3417
  567W        W 4165   0.206  16.296  13.295  0.1014 -0.0291  0.0363
  568W        W 4166  13.142  14.565  10.574 -0.0884  0.0307 -0.0737
  569W        W 4167   9.376   3.102   0.120 -0.5794  0.1652  0.0245
  570W        W 4168   7.116  11.118   6.567 -0.2230  0.1113 -0.1190
  571W        W 4169   7.851   9.428   0.301 -0.0588  0.0965  0.2605
  572W        W 4170  11.062  11.721   3.637 -0.2586 -0.0151 -0.1638
  573W        W 4171  12.312  11.669   5.212  0.0785  0.0856 -0.0727
  574W        W 4172   2.896   6.277   5.529  0.0702 -0.1758  0.0407
  575W        W 4173  13.454   6.289  11.094 -0.1340 -0.1637 -0.2943
  576W        W 4174  13.904   9.665   8.283 -0.0346 -0.0765  0.1982
  577W        W 4175   1.520  12.844   5.376  0.0241 -0.1288  0.2061
  578W        W 4176   9.218  13.985   2.554 -0.2975 -0.0443 -0.2094
  579W        W 4177   2.177   0.050   6.190  0.0314 -0.1927 -0.2389
  580W        W 4178   3.529   0.291   5.975  0.2773  0.1372 -0.1931
  581W        W 4179  12.776  14.142  11.973 -0.2076 -0.3356 -0.0211
  582W        W 4180   9.331   3.806  14.581  0.0354 -0.0507 -0.0803
  583W        W 4181   0.006   0.067   3.385  0.1616  0.4168 -0.1536
  584W        W 4182   2.973  12.948   7.531  0.2709 -0.3110 -0.0693
  585W        W 4183  14.743   1.907   9.315 -0.4907 -0.2418 -0.3980
  586W        W 4184  12.909   2.237   7.399  0.0684 -0.4514 -0.1594
  587W        W 4185   6.508   4.152  12.378  0.1629 -0.0655  0.3481
  588W        W 4186   5.491  13.995  13.423  0.4027  0.0251 -0.0847
  589W        W 4187   6.039   2.856   3.172  0.0917  0.1958 -0.0882
  590W        W 4188  14.016   6.631   1.241 -0.4612  0.3136  0.1034
  591W        W 4189   3.174   6.835  13.983  0.1172 -0.2102  0.2861
  592W        W 4190  16.392   9.446   3.474  0.1017 -0.1327 -0.2991
  593W        W 4191   8.049   3.527   6.081 -0.0345  0.1525 -0.0017
  594W        W 4192  13.774  10.112   8.516  0.1128  0.0116 -0.4028
  595W        W 4193   2.581   5.060   6.865  0.1443 -0.2522 -0.1323
  596W        W 4194   5.950  12.960   4.721 -0.1324  0.0191 -0.0952
  597W        W 4195   4.597   2.570   0.237 -0.1931 -0.1118 -0.4424
  598W        W 4196  14.772   3.276  10.603 -0.0713 -0.1461  0.0750
  599W        W 4197  16.288  10.852   9.097  0.1200 -0.1737  0.1099
  600W        W 4198  14.268  11.685   5.242  0.1110  0.0821 -0.0951
  601W        W 4199   1.716  15.905   6.962  0.0391  0.2769  0.1046
  602W        W 4200   3.688   7.311  12.222  0.1572 -0.0004  0.0662
  603W        W 4201  14.692   0.800  12.321 -0.4075 -0.1133  0.0219
  604W        W 4202  14.640  14.544  14.544  0.0880 -0.0129 -0.0179
  605W        W 4203   9.854   0.644  10.132  0.1016  0.1056 -0.3001
  606W        W 4204   5.492  14.365   5.799  0.2614 -0.0640  0.0146
  607W        W 4205   8.663   7.767  14.187  0.1583  0.0966 -0.2754
  608W        W 4206  14.931   8.657  15.350  0.0871 -0.0213  0.1024
  609W        W 4207   7.517   9.535   2.977  0.0224 -0.0085  0.1267
  610W        W 4208  11.439  11.341  12.669 -0.1148 -0.0984  0.3677
  611W        W 4209  16.034   3.790  10.672 -0.0962 -0.0306 -0.1625
  612W        W 4210   7.875  15.754   2.932  0.0903 -0.2787 -0.1926
  613W        W 4211   3.920  10.907  16.255  0.2077 -0.1323 -0.0407
  614W        W 4212   3.219   9.368   1.732 -0.0127  0.0980 -0.0525
  615W        W 4213  16.253  13.454   9.892  0.1951 -0.1145  0.3230
  616W        W 4214  14.221  11.206   5.615 -0.1037 -0.1113 -0.3186
  617W        W 4215   8.928  11.431  13.208 -0.0590 -0.1176  0.0120
  618W        W 4216   7.055   7.220  12.717  0.0541  0.0525  0.1553
  619W        W 4217   9.701   9.492   4.531 -0.1139 -0.0342 -0.1491
  620W        W 4218   3.154   7.268   0.214 -0.3994  0.1986  0.0463
  621W        W 4219   3.432  10.395  11.805 -0.0559 -0.2400 -0.0857
  622W        W 4220   1.192  12.480   1.933 -0.1239  0.0455  0.0592
  623W        W 4221   7.995  10.551   1.852 -0.0714  0.0042  0.0693
  624W        W 4222  10.049  10.057   5.144 -0.0284 -0.0661  0.1846
  625W        W 4223   9.425   8.897  11.959  0.0533 -0.1305 -0.2499
  626W        W 4224   2.996  14.186   0.262  0.1830 -0.2082  0.2272
  627W        W 4225  12.205  15.971   2.628 -0.3224 -0.0049 -0.0902
  628W        W 4226   3.561   7.547   6.477 -0.0110  0.0497  0.0232
  629W        W 4227  15.365   6.300   7.474  0.2146 -0.1187  0.0741
  630W        W 4228   2.231  15.168   3.761  0.1221  0.1543 -0.2401
  631W        W 4229  14.247   2.822  16.103  0.3512  0.1720 -0.1846
  632W        W 4230   9.712   8.577  10.605  0.1640 -0.1307  0.0305
  633W        W 4231  15.239  12.997  12.660 -0.0330 -0.2285  0.2815
  634W        W 4232  10.911   0.957  15.290 -0.3715  0.3840 -0.0184
  635W        W 4233   9.708   7.769   9.258 -0.2020 -0.0354  0.0494
  636W        W 4234  13.168   6.286  11.537  0.0617 -0.5045 -0.0052
  637W        W 4235  16.164  12.985   8.735  0.2204 -0.0570  0.1453
  638W        W 4236   2.749   0.746   6.580  0.2199  0.0869  0.0329
  639W        W 4237   8.867   2.463   9.563 -0.1783 -0.0642 -0.3049
  640W        W 4238   4.353   6.220   2.255 -0.1320 -0.1008 -0.1332
  641W        W 4239   8.080  14.394   9.096 -0.1261  0.2025  0.1076
  642W        W 4240  12.384   0.915   8.847 -0.1517 -0.3278 -0.1758
  643W        W 4241  10.608   0.763   7.335  0.2330 -0.0743 -0.1037
  644W        W 4242  12.034   8.886   3.074 -0.1995 -0.0947 -0.0232
  645W        W 4243   5.846   4.296  14.521 -0.0273  0.1349  0.0242
  646W        W 4244  13.266  11.697   2.170  0.2715  0.2495  0.1917
  647W        W 4245   3.032   1.060   3.308 -0.0421 -0.1529 -0.1817
  648W        W 4246   4.538  13.303  12.070 -0.0916 -0.0860  0.4587
  649W        W 4247  10.805   8.072  14.199  0.0706  0.0802  0.1398
  650W        W 4248  10.923  13.560   3.421  0.2016 -0.0253 -0.0119
  651W        W 4249   7.178  14.877  12.971 -0.3431  0.4255  0.1157
  652W        W 4250   3.311   0.463   2.749  0.2477  0.2512  0.0417
  653W        W 4251  12.201  14.500   0.539 -0.3285 -0.1327 -0.1571
  654W        W 4252   9.476   0.605  12.710 -0.0245 -0.2070 -0.1733
  655W        W 4253   8.135  16.274  11.251  0.0101 -0.0937 -0.0173
  656W        W 4254  15.817   5.701   0.082 -0.0004 -0.0810  0.1032
  657W        W 4255   1.035  15.030   2.824  0.4586 -0.0551 -0.0594
  658W        W 4256   9.927   5.376   1.118 -0.0043  0.0557 -0.0229
  659W        W 4257   6.087   5.683   1.351 -0.2178 -0.0939  0.0822
  660W        W 4258   5.128  16.095  12.420 -0.0645  0.0741  0.1299
  661W        W 4259  13.372   8.873   2.707  0.0697  0.0524  0.0588
  662W        W 4260   8.091   0.860   8.434 -0.1672 -0.1183 -0.0537
  663W        W 4261  15.905   1.559  11.825  0.4253 -0.2027  0.1538
  664W        W 4262  16.194   7.515   4.328 -0.0335 -0.2107  0.2703
  665W        W 4263   4.171   7.049   8.953  0.0096  0.2186  0.2239
  666W        W 4264   6.251  16.229  12.439 -0.0368  0.0012 -0.3154
  667W        W 4265  15.863  14.935  13.233 -0.2449  0.1699 -0.1538
  668W        W 4266   3.475  16.223   1.872 -0.0758  0.1179 -0.0999
  669W        W 4267   2.980   0.383  11.210  0.1991 -0.0562  0.1441
  670W        W 4268  10.198  13.250   2.882 -0.1448  0.3491 -0.0016
  671W        W 4269   4.886   0.016   0.826 -0.0702  0.1654 -0.1921
  672W        W 4270   3.600   9.463   6.375 -0.3652 -0.2860 -0.0261
  673W        W 4271  16.262   1.893  15.531  0.0020 -0.0473 -0.0592
  674W        W 4272   2.235  15.306   8.663  0.0460 -0.1653  0.0755
  675W        W 4273  16.177   5.458   7.922  0.0511 -0.2062 -0.1747
  676W        W 4274  13.503   3.609  15.222  0.0575 -0.1490 -0.1385
  677W        W 4275  15.929   4.375   9.680 -0.1568 -0.4329 -0.1155
  678W        W 4276   0.993  15.181  15.725  0.1581 -0.0272  0.0409
  679W        W 4277   3.928  13.434   8.637  0.0519  0.2852 -0.2645
  680W        W 4278  11.241  14.978   5.539  0.2402 -0.1038 -0.0993
  681W        W 4279  12.548   5.378   3.541  0.1842  0.0129  0.0535
  682W        W 4280  15.911   5.696   5.084 -0.0137  0.0153  0.2251
  683W        W 4281   5.544  13.212   9.132  0.2420  0.1938 -0.3678
  684W        W 4282   7.801   8.044  14.249 -0.1556 -0.1572 -0.1221
  685W        W 4283   4.739   3.910  13.647  0.0003 -0.2197  0.1365
  686W        W 4284   9.003  11.678   6.343 -0.1317 -0.4115 -0.1223
  687W        W 4285  14.735   1.729   0.250 -0.1143  0.3363  0.3416
  688W        W 4286  10.850  11.954   5.772 -0.0849  0.0579  0.2298
  689W        W 4287   0.475   4.015  13.599  0.1142  0.2737  0.0131
  690W        W 4288  15.318   9.434   1.025  0.1205  0.3541 -0.0056
  691W        W 4289   8.792   9.807   9.413  0.0288 -0.2118 -0.0640
  692W        W 4290  15.729  16.257  16.078  0.0218  0.0646 -0.1418
  693W        W 4291  16.102  13.782   1.682 -0.1133 -0.0497  0.0276
  694W        W 4292  12.728   6.071  15.853  0.1404  0.0065  0.0613
  695W        W 4293   4.412  12.079   3.826 -0.3471  0.0440 -0.0325
  696W        W 4294   0.939  12.293   6.792  0.2430  0.0638 -0.2801
  697W        W 4295   8.012   9.718  15.285  0.1795 -0.1312  0.0229
  698W        W 4296   6.711   5.722  15.354 -0.0584 -0.1769 -0.3814
  699W        W 4297   4.928   7.583  16.145 -0.0762 -0.0525  0.1144
  700W        W 4298  16.218  10.690  10.684 -0.1468  0.1546 -0.3075
  701W        W 4299   5.580   8.024   2.862  0.4430 -0.1437  0.0584
  702W        W 4300   4.112   5.591   1.054  0.0181  0.0689 -0.0672
  703W        W 4301   5.554   5.140  12.615  0.0363 -0.1321 -0.1060
  704W        W 4302   2.465  14.996  10.721 -0.2392  0.1738  0.1288
  705W        W 4303   4.825   4.456  13.774  0.2323  0.0690  0.0526
  706W        W 4304   6.620  11.956   0.623 -0.1299 -0.1595  0.1489
  707W        W 4305  13.972  12.452  16.120 -0.1415  0.4304 -0.2733
  708W        W 4306   4.868  11.948  10.368 -0.0850 -0.2752 -0.1671
  709W        W 4307  14.646  12.221   7.573  0.0505 -0.0152 -0.2043
  710W        W 4308   2.585   0.780   1.874 -0.0768  0.0339  0.3657
  711W        W 4309   0.044   7.159   9.652  0.2030 -0.1270 -0.3273
  712W        W 4310   0.539   1.323   8.504 -0.3179  0.0847 -0.3202
  713W        W 4311  12.461   5.035   0.689 -0.0266  0.0928 -0.1889
  714W        W 4312  12.020  10.825  12.155  0.2297 -0.0965 -0.0437
  715W        W 4313  13.992   8.498   9.800 -0.3578 -0.0465 -0.2019
  716W        W 4314   8.622  11.307  15.327 -0.1538  0.0121  0.2527
  717W        W 4315   1.936  15.275  15.172 -0.1606  0.0302 -0.1359
  718W        W 4316  14.326   9.082   7.379  0.2641 -0.3001 -0.4510
  719W        W 4317   2.160   3.965  11.556  0.0205  0.0979  0.0029
  720W        W 4318   6.063   0.296   4.317  0.0791 -0.0503 -0.1992
  721W        W 4319   6.690  10.456   1.387  0.3807  0.0708  0.0013
  722W        W 4320   4.910   3.821   1.013 -0.0198 -0.1008  0.1938
  723W        W 4321  15.550   4.308   3.719  0.2102  0.0411  0.3287
  724W        W 4322  11.250  11.930   0.114  0.0844 -0.4742  0.0761
  725W        W 4323   0.034   8.988  12.699  0.1705 -0.2431 -0.0756
  726W        W 4324   6.653  15.487  10.603  0.0565  0.1309  0.0506
  727W        W 4325   8.729  13.514   1.827 -0.0728  0.2212 -0.1226
  728W        W 4326   3.315   2.053  11.640  0.0773 -0.0334  0.0099
  729W        W 4327   5.009   3.949   3.076 -0.1457 -0.1243 -0.1038
  730W        W 4328   3.806  10.961   6.907  0.0832  0.2615 -0.0522
  731W        W 4329   3.381   0.156  11.083 -0.2516 -0.1600 -0.0163
  732W        W 4330   3.256  10.179   2.252 -0.0734 -0.0453  0.0384
  733W        W 4331  13.893   0.436  12.488  0.1602 -0.2653  0.3792
  734W        W 4332   5.349   5.755   0.757 -0.0507 -0.1229 -0.0442
  735W        W 4333  11.774   2.260   0.067  0.0922  0.2083  0.1431
  736W        W 4334  10.081  14.007   8.389  0.1435  0.1416 -0.1147
  737W        W 4335  10.377  13.682   2.839  0.1817 -0.1004 -0.2360
  738W        W 4336   4.104   2.392   4.343 -0.0144  0.1092  0.2557
  739W        W 4337  15.704   0.481  10.830  0.2476 -0.1012 -0.1454
  740W        W 4338   0.878   6.813  16.385 -0.0946  0.1251 -0.1442
  741W        W 4339   6.478  10.429   7.208 -0.1242 -0.2970  0.0059
  742W        W 4340  10.133   9.695  10.719 -0.2897  0.1711 -0.0635
  743W        W 4341   7.907  12.054   1.254 -0.1108 -0.4151 -0.0561
  744W        W 4342   8.092   0.581   0.523  0.0184  0.3376  0.0322
  745W        W 4343  14.341  11.023  14.966  0.3749 -0.0219 -0.0636
  746W        W 4344   0.273   2.449  10.043 -0.4492  0.0493 -0.3082
  747W        W 4345  15.713  10.176   7.531  0.1897  0.0482  0.1666
  748W        W 4346  14.126   9.978   1.467 -0.1741  0.0399  0.1209
  749W        W 4347   5.497   4.600   5.360 -0.2965 -0.1147 -0.0514
  750W        W 4348  15.238   5.819  13.283  0.1955 -0.0385 -0.0248
  751W        W 4349   0.020   4.533  14.306  0.0116  0.1818 -0.4058
  752W        W 4350   3.320   7.628  16.127 -0.0795 -0.0597 -0.0966
  753W        W 4351   6.130  10.588  13.587 -0.1372 -0.1140 -0.4542
  754W        W 4352   8.320  13.668   6.255  0.2970 -0.2575  0.1858
  755W        W 4353  12.495  11.083  11.981 -0.0860  0.1170  0.3061
  756W        W 4354   0.629  15.924  10.940  0.2005 -0.1831  0.0827
  757W        W 4355   9.095  10.608  10.534  0.0868  0.0693 -0.3117
  758W        W 4356   2.495  14.987   1.004 -0.1095 -0.0740 -0.0903
  759W        W 4357   6.612  15.444   6.912  0.6091 -0.4415 -0.1233
  760W        W 4358  16.241   4.961  11.752 -0.1237 -0.1232  0.0555
  761W        W 4359   3.430  15.244   4.091 -0.1362 -0.2241 -0.0351
  762W        W 4360   1.635   1.575  15.598 -0.1957 -0.3436  0.0499
  763W        W 4361   5.573  14.756   4.243  0.1695  0.1698 -0.3126
  764W        W 4362  13.089   2.220   0.284 -0.0556 -0.3020  0.0839
  765W        W 4363  11.928   2.539   8.073 -0.0496 -0.0063 -0.0692
  766W        W 4364   6.683  15.117   2.388 -0.3132 -0.2736 -0.2211
  767W        W 4365   3.249   9.288   9.149 -0.0689  0.1306  0.0533
  768W        W 4366  15.041   7.970  15.615 -0.1376 -0.0546 -0.3356
  769W        W 4367   4.935   1.754   1.616  0.1396 -0.3057 -0.1338
  770W        W 4368   4.675   1.961  12.735  0.0496 -0.0652  0.2911
  771W        W 4369  10.417   8.925  12.188 -0.2224  0.2480 -0.0625
  772W        W 4370   9.819   2.890   6.568 -0.0532 -0.1345 -0.2798
  773W        W 4371   5.865  11.207   0.603  0.0913  0.0950  0.1761
  774W        W 4372  16.255  12.475   0.155  0.0904  0.1529  0.1271
  775W        W 4373  13.638   4.290  10.746  0.0595 -0.0813 -0.0677
  776W        W 4374  11.268   5.352   0.488 -0.0286  0.4209  0.0603
  777W        W 4375   2.124  11.790  13.600 -0.0630 -0.0780  0.0935
  778W        W 4376   7.709   9.440  10.830  0.0113 -0.0501 -0.0329
  779W        W 4377   8.815  14.322   0.098 -0.0029  0.2793 -0.2533
  780W        W 4378   7.082   1.909  13.651  0.2338 -0.2248 -0.1990
  781W        W 4379   0.680  10.919   2.938  0.0102  0.0020 -0.0713
  782W        W 4380  16.349   1.698   3.366 -0.1584 -0.1912 -0.1878
  783W        W 4381   5.590  15.778   5.570  0.0172 -0.1058 -0.0321
  784W        W 4382   7.453   2.470  14.028 -0.5195 -0.1329 -0.1315
  785W        W 4383  14.192   9.822   1.020 -0.0756  0.2808 -0.0527
  786W        W 4384  12.066  16.323   3.757 -0.0465 -0.0020 -0.0157
  787W        W 4385   3.047   5.213  13.448  0.0840 -0.0248  0.3225
  788W        W 4386  15.092   7.793   4.444 -0.2870 -0.1836  0.0768
  789W        W 4387   3.325   5.003   0.678  0.2355  0.0425  0.0019
  790W        W 4388  14.104  10.423  13.272  0.0540 -0.0749  0.0547
  791W        W 4389   7.471  15.856   7.012 -0.0055  0.1664 -0.2360
  792W        W 4390   4.534  15.085   3.214  0.5226 -0.3073 -0.3998
  793W        W 4391   2.001   6.965   2.585 -0.2067 -0.3682  0.1303
  794W        W 4392   3.711   1.065  10.459 -0.0426  0.2642  0.1542
  795W        W 4393   9.377  15.352   2.871 -0.1024 -0.4070 -0.2950
  796W        W 4394  11.276   0.218   6.151  0.0630 -0.0098  0.0382
  797W        W 4395  15.023   4.079  14.496  0.0456 -0.2101 -0.2635
  798W        W 4396   4.901   0.687  10.348 -0.1150  0.0252 -0.0392
  799W        W 4397  13.504   5.050   8.407 -0.1246  0.0447  0.3296
  800W        W 4398   2.185  15.160  11.135  0.2232  0.1075  0.2596
  801W        W 4399   8.561   1.882   1.343  0.0846  0.1826  0.1369
  802W        W 4400  16.260   4.910   7.840 -0.1756  0.0068 -0.1356
  803W        W 4401  11.460  10.463  13.172 -0.3476 -0.1653  0.1065
  804W        W 4402   6.827   3.059  10.273  0.0951 -0.0567 -0.0275
  805W        W 4403  15.210  12.037  12.236 -0.2678 -0.0113 -0.0530
  806W        W 4404   6.416  15.304   4.475  0.1387  0.1389 -0.0714
  807W        W 4405   4.262   4.622   1.127 -0.2849 -0.0008 -0.0465
  808W        W 4406  12.979   9.108  14.032  0.1050 -0.2856 -0.1212
  809W        W 4407  11.264   9.667   0.078 -0.0138  0.0843  0.0779
  810W        W 4408   3.733   4.242   8.038  0.2063  0.1014  0.1043
  811W        W 4409   6.283   2.434  10.632 -0.0804 -0.0584  0.1566
  812W        W 4410   9.076  14.551   4.012  0.1675  0.1535 -0.3811
  813W        W 4411  12.306   3.113   5.118 -0.1857 -0.0567 -0.1773
  814W        W 4412  11.263   8.690  14.471 -0.2159  0.4089 -0.0333
  815W        W 4413  10.701   3.731  12.750 -0.0972  0.0303  0.1730
  816W        W 4414   8.726   5.431  12.041  0.0233 -0.0278 -0.2098
  817W        W 4415   2.909  14.631   6.560  0.0707  0.0695 -0.2126
  818W        W 4416   0.679  14.653  11.784  0.0159  0.4685 -0.2151
  819W        W 4417   8.653  11.531  12.721 -0.1196  0.1116 -0.1116
  820W        W 4418  10.625   3.560   3.549  0.2278  0.0731  0.1473
  821W        W 4419  11.867  16.331  11.262  0.0436 -0.1005  0.1385
  822W        W 4420  15.938   5.027   6.976  0.0485  0.1308 -0.1290
  823W        W 4421   2.854  10.451  12.957  0.0080 -0.3115 -0.0869
  824W        W 4422   5.311   8.335   3.232  0.0840  0.1686 -0.1200
  825W        W 4423  13.077   1.352  15.610 -0.2580 -0.2429  0.0015
  826W        W 4424   1.494   1.907  10.073 -0.0782  0.2733 -0.0499
  827W        W 4425  11.343  10.712   3.103  0.1943 -0.1629  0.2712
  828W        W 4426   7.473   2.468  12.488 -0.2636  0.0393  0.0700
  829W        W 4427  14.087   3.071   2.742  0.0068 -0.1500 -0.1350
  830W        W 4428   2.642   9.907   2.086 -0.1858  0.1496  0.0425
  831W        W 4429   0.056   4.915   3.478 -0.1185 -0.1859  0.1578
  832W        W 4430   3.842  12.561   2.784  0.1037  0.0306 -0.0947
  833W        W 4431   2.770   1.467  13.141 -0.0135  0.0117  0.1803
  834W        W 4432  12.044  11.398   6.969  0.0844  0.1365 -0.0625
  835W        W 4433   2.691   0.151   5.917 -0.0384  0.0353  0.0320
  836W        W 4434   1.733   7.413   0.322 -0.4194 -0.1721 -0.3295
  837W        W 4435   4.132   1.999   5.782 -0.3843  0.1021  0.2569
  838W        W 4436  10.420  12.750  14.116  0.1721  0.0257 -0.2004
  839W        W 4437  11.508  13.269   0.151  0.1562 -0.1329 -0.0485
  840W        W 4438   6.937  11.924   2.015  0.3682 -0.1402 -0.0414
  841W        W 4439  15.626   6.844  13.623  0.0413  0.4205  0.1016
  842W        W 4440  10.453   5.732  14.595  0.5186  0.3725 -0.0897
  843W        W 4441   8.493  15.870  15.559  0.1610 -0.0563  0.0335
  844W        W 4442   9.648  14.542   6.793  0.1108  0.3954  0.1606
  845W        W 4443  15.815   5.716  11.154 -0.0680  0.0218 -0.2497
  846W        W 4444  11.273   0.056   5.538  0.1386  0.1680  0.0851
  847W        W 4445  13.908  16.234   1.380  0.1270 -0.0887  0.0905
  848W        W 4446   5.045   5.335   4.702  0.0395 -0.4852  0.2256
  849W        W 4447   2.939  11.558   2.064 -0.2172 -0.0506  0.1580
  850W        W 4448  12.884   6.257   7.956 -0.1170  0.0516  0.1794
  851W        W 4449   0.122  15.788  12.708  0.0186 -0.0766 -0.2804
  852W        W 4450  12.837  14.372   9.487  0.1278 -0.1975  0.2159
  853W        W 4451   0.613   8.151  15.739 -0.0438  0.1597 -0.1568
  854W        W 4452  11.913   8.791  11.976 -0.1953  0.0962  0.3086
  855W        W 4453   3.862   7.399  11.235 -0.0513  0.2162  0.0040
  856W        W 4454   1.639   6.958   4.510  0.0626 -0.0555 -0.0573
  857W        W 4455  13.357  11.413  12.991  0.0220  0.1141  0.1212
  858W        W 4456   0.077  10.686   8.386 -0.2142  0.2036  0.0314
  859W        W 4457   2.651   0.101   3.957  0.1106  0.0150  0.1518
  860W        W 4458   1.575  12.174   0.800 -0.0442 -0.0646  0.1170
  861W        W 4459  12.637   6.134  10.884 -0.1701 -0.1765 -0.1105
  862W        W 4460   6.131   2.269   2.426 -0.2014 -0.2136 -0.0906
  863W        W 4461  12.246  10.481   9.046  0.0688 -0.0037  0.0699
  864W        W 4462   3.955   4.886   0.730  0.0181 -0.1351  0.2400
  865W        W 4463   0.671  13.481  15.699 -0.2917 -0.1120 -0.0095
  866W        W 4464  13.925  15.162   9.573  0.0944  0.0326 -0.0783
  867W        W 4465  14.002   7.152  16.253 -0.0856  0.0042  0.0363
  868W        W 4466   4.871  13.958  10.743  0.1052 -0.3717 -0.2823
  869W        W 4467   6.080  14.179   4.808 -0.0196  0.3900  0.0832
  870W        W 4468  10.173  12.860   7.013 -0.0467 -0.1239  0.2789
  871W        W 4469   3.614  15.916  14.223 -0.1525 -0.1513  0.0133
  872W        W 4470   4.229   6.122   4.414  0.1320  0.1917  0.0862
  873W        W 4471   5.274  13.809   7.274  0.2377  0.3103  0.0449
  874W        W 4472   6.851   3.453   1.461 -0.0747  0.1894 -0.4256
  875W        W 4473   1.034  11.861  13.565 -0.2431  0.2805 -0.0872
  876W        W 4474  10.598   6.963   3.302  0.1643  0.1960 -0.1982
  877W        W 4475   0.829  14.879   4.355  0.1530 -0.1957 -0.0271
  878W        W 4476   6.054   0.023  14.209  0.0959 -0.0325 -0.0416
  879W        W 4477  10.849  14.575   0.400  0.2756 -0.0365  0.0832
  880W        W 4478   1.013   1.650   5.384 -0.0464  0.1669 -0.2597
  881W        W 4479   5.698   7.586  14.947 -0.0230  0.2327 -0.0916
  882W        W 4480  13.679  11.861   9.775  0.1527  0.0277  0.0709
  883W        W 4481  13.059   7.898  16.011 -0.0851  0.0444  0.0877
  884W        W 4482   5.597   8.996   2.811 -0.0376  0.0749 -0.3169
  885W        W 4483  12.988   2.681   3.474  0.3548 -0.1306 -0.2698
  886W        W 4484   7.672   6.517   7.770  0.0042 -0.1151  0.2513
  887W        W 4485   1.626  14.570   6.704 -0.0111 -0.1627 -0.1804
  888W        W 4486  10.854   9.639   7.802 -0.0678  0.0003 -0.0510
  889W        W 4487  15.185   0.077   5.444  0.4327  0.0037  0.2898
  890W        W 4488  10.790   2.310   9.270 -0.2603 -0.2577  0.0272
  891W        W 4489   6.931  10.835   1.639  0.1499 -0.2408 -0.4988
  892W        W 4490  15.618  12.938   4.534 -0.3426 -0.0835 -0.1230
  893W        W 4491  10.004   7.905   2.752 -0.2260 -0.0181  0.1754
  894W        W 4492  13.565   4.966   2.880 -0.1825 -0.0642 -0.3346
  895W        W 4493  15.106  12.760   1.279 -0.0814  0.1650  0.1667
  896W        W 4494   6.601   2.813  12.638 -0.0846  0.1586 -0.3291
  897W        W 4495   2.962   7.039   2.490  0.0697  0.1342 -0.1057
  898W        W 4496   6.333   8.956  14.964 -0.1781 -0.1955 -0.0768
  899W        W 4497   7.666   6.905   1.308 -0.0682  0.1873  0.0554
  900W        W 4498   8.422   3.520   4.694  0.3101  0.1442  0.1124
  901W        W 4499   0.922   2.691   8.479  0.2393  0.0092  0.1736
  902W        W 4500  11.912  12.716   6.883  0.0974  0.2190 -0.1768
  903W        W 4501  11.420   1.951  16.142  0.2988  0.3256  0.0819
  904W        W 4502   4.857  10.768   6.151  0.0852  0.1187 -0.0063
  905W        W 4503   4.650   3.936  11.685 -0.1964  0.0167  0.1558
  906W        W 4504  13.793  16.083   3.225 -0.2071  0.1643 -0.0161
  907W        W 4505   8.143   3.210  16.155 -0.3489 -0.0950 -0.0516
  908W        W 4506   2.532   2.323   2.537 -0.1197 -0.0650  0.0009
  909W        W 4507  14.338   1.317   6.346 -0.0545 -0.2311  0.1943
  910W        W 4508  12.942   0.654  11.548 -0.1727 -0.3235  0.3427
  911W        W 4509  11.654   6.613   4.043  0.0699  0.1412 -0.1002
  912W        W 4510  11.720   6.098  10.498  0.2023 -0.1206  0.0061
  913W        W 4511   8.282  12.050   0.952 -0.2242 -0.0558  0.1557
  914W        W 4512  10.034  15.941   6.550  0.1733 -0.0735 -0.0049
  915W        W 4513   0.386   4.555  13.940 -0.4321  0.1034 -0.0339
  916W        W 4514  14.225   9.261  15.980 -0.0530 -0.2245 -0.4026
  917W        W 4515   3.494   9.991   4.760 -0.1223 -0.0391  0.1572
  918W        W 4516  12.107   1.885   8.915  0.0517  0.2330  0.1783
  919W        W 4517  14.769   6.689   9.638  0.0669  0.1249 -0.4518
  920W        W 4518   6.019  12.560  11.884 -0.2033 -0.0791  0.0817
  921W        W 4519   9.052   7.463  13.971  0.0184 -0.0066 -0.1876
  922W        W 4520  13.577   5.130   6.970 -0.0458  0.1948  0.4289
  923W        W 4521   4.494   0.717  12.788 -0.0845 -0.0601 -0.0313
  924W        W 4522  12.682   7.828   2.331 -0.0346  0.0765 -0.4210
  925W        W 4523   6.245   8.241  10.798 -0.1786 -0.0495  0.0041
  926W        W 4524  10.583   2.023   3.214  0.0101  0.0984 -0.0071
  927W        W 4525  10.803   4.069  10.273  0.0508  0.3329  0.3051
  928W        W 4526  15.999   4.876  16.148  0.3048  0.1026 -0.0634
  929W        W 4527  14.896  13.298  10.004 -0.2347  0.1251 -0.0260
  930W        W 4528  15.343   0.579   6.790 -0.1819 -0.2003 -0.1095
  931W        W 4529   7.462   5.635   5.541  0.2681  0.0914  0.0890
  932W        W 4530   8.956   9.261   5.453  0.1801  0.2936 -0.0178
  933W        W 4531  15.909  14.927   6.207  0.0567  0.0162 -0.0799
  934W        W 4532   6.927   9.235  16.079  0.3400 -0.1658  0.1018
  935W        W 4533  12.254   3.697   7.000 -0.0506  0.3425  0.2477
  936W        W 4534  13.346   8.272  13.773 -0.3660  0.1152 -0.0611
  937W        W 4535   6.985   2.879  12.985  0.0426  0.1974  0.0358
  938W        W 4536   7.017  13.105   9.209  0.0062 -0.2571  0.2931
  939W        W 4537   0.592  12.608  14.228 -0.3397  0.0789  0.0627
  940W        W 4538  10.134  14.264   0.502 -0.1281  0.0906 -0.3363
  941W        W 4539  12.698   3.272  14.501  0.0403 -0.0788 -0.0377
  942W        W 4540  16.141  11.492   0.613  0.3338  0.2135 -0.0444
  943W        W 4541  13.039  15.302  15.867 -0.0012 -0.1349 -0.0505
  944W        W 4542   6.266   6.654   1.149  0.0922  0.0281  0.0853
  945W        W 4543  11.321   2.528   6.617  0.0523  0.1125  0.3542
  946W        W 4544   5.208   3.209   0.444 -0.0108 -0.0995 -0.1139
  947W        W 4545   8.117   8.967   1.820  0.1489 -0.3124 -0.1117
  948W        W 4546  14.446   7.964  13.686  0.0436  0.1471  0.2990
  949W        W 4547   8.239   2.585  15.423 -0.0763 -0.0675 -0.2495
  950W        W 4548   5.370   6.755   9.640 -0.0180  0.2424 -0.0611
  951W        W 4549   1.709   4.534   2.017 -0.3720  0.0679 -0.2264
  952W        W 4550  12.800   4.498   3.941  0.3595 -0.1237 -0.0459
  953W        W 4551   0.808   9.193   9.538  0.2607 -0.0322  0.2845
  954W        W 4552  10.061   9.958  13.859 -0.4533  0.2597  0.0447
  955W        W 4553  10.223  14.649   7.752  0.2797  0.1218  0.1079
  956W        W 4554   5.040   8.573  14.978  0.0641  0.1228 -0.2231
  957W        W 4555   7.383   9.971   5.944  0.2015 -0.2273  0.3351
  958W        W 4556   4.773   7.880   3.726 -0.0828  0.1288 -0.0422
  959W        W 4557   3.477  14.789  10.091 -0.1983  0.0418 -0.0103
  960W        W 4558   1.614  10.129  15.047 -0.0933  0.0824 -0.0248
  961W        W 4559   8.655   4.466  11.074 -0.0659  0.1726  0.2638
  962W        W 4560  11.835  14.816   2.882  0.1420 -0.0166 -0.1110
  963W        W 4561   8.202  15.057   2.274 -0.2198  0.2233  0.1869
  964W        W 4562  13.145   3.243  12.732 -0.1073 -0.1238 -0.0248
  965W        W 4563  15.373  15.817  13.858  0.1363  0.0536 -0.1073
  966W        W 4564   6.613  12.199  10.808  0.1137  0.0063  0.2762
  967W        W 4565  11.792  15.580  10.191 -0.1901 -0.4965  0.0298
  968W        W 4566  12.738  16.360   2.027 -0.0686 -0.1529 -0.0498
  969W        W 4567   2.450  12.484   2.108 -0.0730 -0.0206 -0.5458
  970W        W 4568   4.157  16.179  11.205 -0.0152  0.1108 -0.1668
  971W        W 4569   6.774  14.203   6.238 -0.0252 -0.2294 -0.0517
  972W        W 4570   6.653   2.792   7.388  0.1043 -0.0726  0.1909
  973W        W 4571  13.166   6.696  11.861 -0.0268  0.3505 -0.0358
  974W        W 4572   9.903   9.995   7.824  0.0320  0.1825  0.2380
  975W        W 4573   8.286  10.419   8.347  0.1420 -0.2907  0.0709
  976W        W 4574   9.563   9.751   6.043 -0.1960  0.1318 -0.1023
  977W        W 4575   6.880  13.026  15.895 -0.1949 -0.3909 -0.0938
  978W        W 4576   7.428   3.492   9.754 -0.0372 -0.2762 -0.0992
  979W        W 4577   6.696   7.317   1.591 -0.1055 -0.2279 -0.0604
  980W        W 4578   8.402   5.487  13.894  0.1567 -0.5753 -0.0582
  981W        W 4579  12.236  11.263   5.544  0.0834 -0.3718 -0.4084
  982W        W 4580  13.083   0.959  10.029 -0.0301 -0.1599  0.2480
  983W        W 4581   7.669  10.225   3.226 -0.0745  0.2253  0.0941
  984W        W 4582  16.315   6.707  12.551  0.1948  0.0029 -0.2037
  985W        W 4583  11.529   2.530  16.016 -0.1291 -0.3547 -0.2537
  986W        W 4584   4.232   6.415   7.073  0.0152  0.3656 -0.2905
  987W        W 4585  15.623   7.212   0.580 -0.2085 -0.0776 -0.1942
  988W        W 4586   5.877  15.833  12.422  0.1120  0.0078  0.4899
  989W        W 4587   7.659  10.316  11.716 -0.0931  0.2898 -0.0201
  990W        W 4588   5.115  12.591   1.420 -0.1065  0.3528  0.1124
  991W        W 4589   7.683  14.997   8.375  0.0684  0.4123  0.0871
  992W        W 4590  14.792  10.506   7.323  0.2617  0.0738  0.0551
  993W        W 4591  11.619  14.351  14.516 -0.2410  0.1286  0.1423
  994W        W 4592   2.004   8.315  10.216  0.0395  0.3608 -0.2082
  995W        W 4593   7.242   9.168   1.581  0.0954  0.0951  0.3264
  996W        W 4594   6.184   8.520   7.423  0.2149  0.0651 -0.0063
  997W        W 4595   5.004   0.295  16.212  0.2360 -0.0280  0.1000
  998W        W 4596   4.905   1.489   0.728  0.0465 -0.3961  0.1695
  999W        W 4597   3.888  14.435   6.597  0.0853  0.0532 -0.3739
 1000W        W 4598  14.290   3.603  11.015 -0.0870  0.0021 -0.0468
 1001W        W 4599   0.333   7.271   2.001  0.1639 -0.0135  0.3567
 1002W        W 4600   3.998   0.868   5.332  0.6312  0.0165 -0.0268
 1003W        W 4601   8.365   5.597  11.657 -0.0339  0.0571 -0.0642
 1004W        W 4602  11.455   3.600   2.221 -0.1826  0.0052  0.2144
 1005W        W 4603   9.578   8.168   2.117  0.0073 -0.1328  0.1389
 1006W        W 4604  14.228   5.130  15.559  0.0002 -0.1665 -0.0987
 1007W        W 4605  15.441  15.230   6.863 -0.1231 -0.0783  0.1244
 1008W        W 4606   2.543  16.092   9.246  0.0800  0.1147  0.1391
 1009W        W 4607  11.722  13.099   6.611 -0.0838  0.0916  0.1776
 1010W        W 4608  14.997   9.824  11.177  0.2562 -0.0978 -0.1100
 1011W        W 4609  10.387  14.678   3.712  0.1193 -0.3392  0.1005
 1012W        W 4610   4.111   4.994  10.214  0.2419  0.0725  0.1924
 1013W        W 4611   6.515   0.476   2.811 -0.1416 -0.1813 -0.1289
 1014W        W 4612   6.556  14.123  11.025  0.2270  0.0933  0.0079
 1015W        W 4613  10.303   7.283   2.855  0.3172  0.0873 -0.3178
 1016W        W 4614  10.015  12.702  10.640 -0.0313 -0.2716 -0.1837
 1017W        W 4615   7.026  11.302  15.574 -0.0069 -0.0411 -0.0844
 1018W        W 4616   1.948   6.666   7.668 -0.0068  0.2175  0.2989
 1019W        W 4617  11.155   6.601  13.239 -0.1482  0.3913  0.2504
 1020W        W 4618  13.480  10.339  12.645 -0.3347  0.4584  0.1679
 1021W        W 4619   6.543  14.531   9.731 -0.0996 -0.3241 -0.3672
 1022W        W 4620  12.021   3.853   2.930 -0.0917  0.1759  0.1621
 1023W        W 4621   0.872   5.551  14.415  0.2967 -0.1133  0.0687
 1024W        W 4622   6.575   8.417  12.428 -0.0746 -0.0663  0.0252
 1025W        W 4623   9.728  12.179  12.097  0.0373  0.0567 -0.0120
 1026W        W 4624  13.696  10.757   8.760  0.3580  0.1850 -0.1478
 1027W        W 4625  11.808   6.215  13.748  0.0403 -0.0273 -0.0443
 1028W        W 4626  11.110   0.608  12.172  0.1233 -0.0373  0.1443
 1029W        W 4627  15.980  16.353   6.257  0.2869 -0.0169  0.0681
 1030W        W 4628   2.503   7.769   0.394  0.1063 -0.2355  0.0473
 1031W        W 4629   0.934   6.160   2.591  0.0501 -0.0431  0.1452
 1032W        W 4630   4.732  13.453   9.786 -0.0607 -0.0181  0.0135
 1033W        W 4631   5.095   9.955  12.779  0.0535  0.2036  0.0604
 1034W        W 4632   2.706   6.528  10.191  0.0025  0.1481  0.1464
 1035W        W 4633  11.558   7.552   9.454  0.2855  0.2862 -0.1593
 1036W        W 4634  13.071  11.707  15.546  0.1721  0.0454 -0.0749
 1037W        W 4635   3.951   6.479  13.994 -0.1352 -0.0406  0.1225
 1038W        W 4636   9.849  13.765   4.706 -0.0467 -0.1055 -0.1215
 1039W        W 4637   5.257   5.435   1.305 -0.0377 -0.3245 -0.1314
 1040W        W 4638   9.449   1.837  12.374  0.4032  0.3833 -0.0825
 1041W        W 4639   1.545  10.995   8.615 -0.0821 -0.0103 -0.2950
 1042W        W 4640   4.771   9.081   0.336  0.2913 -0.2012  0.0155
 1043W        W 4641  14.612   9.408  10.618 -0.3109 -0.1316  0.2828
 1044W        W 4642   4.251   2.858   4.220 -0.0386  0.1821  0.2636
 1045W        W 4643   4.204   2.355  16.288 -0.1559 -0.0183  0.1915
 1046W        W 4644  13.813  12.064  15.316 -0.1077 -0.0636 -0.2391
 1047W        W 4645   5.839  12.135  16.360 -0.1579 -0.2025 -0.1541
 1048W        W 4646  15.299   4.515   7.339 -0.0458  0.2179 -0.0597
 1049W        W 4647  11.360   5.520   1.441 -0.1170  0.1961  0.0557
 1050W        W 4648   1.382  11.620   7.651  0.1362 -0.1419  0.0963
 1051W        W 4649   1.807   6.909   6.013  0.0175  0.0748 -0.0424
 1052W        W 4650   2.854  12.225   8.598 -0.2301 -0.0956  0.3810
 1053W        W 4651   8.896   4.007  11.159 -0.2969  0.2073  0.1436
 1054W        W 4652  14.066   5.618  13.709  0.1092  0.1329  0.1222
 1055W        W 4653   6.843   6.185   4.719  0.0618  0.1270  0.3876
 1056W        W 4654  15.841  12.544   4.781  0.1154 -0.4701  0.0915
 1057W        W 4655  14.777   1.011   6.254  0.1541  0.0361  0.0394
 1058W        W 4656  11.475  10.741  14.710 -0.0009 -0.1100 -0.1496
 1059W        W 4657   3.357   9.178   4.984  0.0964 -0.2028 -0.0872
 1060W        W 4658  15.720  11.779  14.130 -0.0479 -0.3563 -0.3002
 1061W        W 4659  13.659  13.521   9.191 -0.2139  0.0116  0.0801
 1062W        W 4660   2.906   4.226   9.846  0.1137  0.1308  0.4467
 1063W        W 4661   8.214   8.287   6.517  0.0585 -0.2953  0.2386
 1064W        W 4662   4.252  13.078   8.070  0.0291 -0.0167 -0.2280
 1065W        W 4663   0.529   2.901  13.203 -0.1256 -0.4383  0.1812
 1066W        W 4664  14.785  12.479   0.885 -0.1011 -0.0894 -0.0198
 1067W        W 4665  12.971  12.846   2.622 -0.0129 -0.0566 -0.2692
 1068W        W 4666  11.561   5.013   5.970  0.1632  0.1440 -0.3049
 1069W        W 4667   3.969  12.552   7.226 -0.2798  0.2772 -0.1483
 1070W        W 4668   5.518  15.615   8.964  0.1487 -0.0903 -0.0272
 1071W        W 4669   5.226   9.972   3.667 -0.1733 -0.0771  0.0566
 1072W        W 4670   2.266  10.726  13.089  0.2816 -0.1149  0.1655
 1073W        W 4671  13.860  14.087   9.788 -0.1678  0.1856 -0.1538
 1074W        W 4672  11.469  13.341  14.439 -0.0934  0.0115  0.0098
 1075W        W 4673   7.450  14.425   3.173  0.1041  0.3123 -0.1171
 1076W        W 4674   1.636   5.715   3.885 -0.4172  0.2015 -0.1238
 1077W        W 4675   8.261  10.640   5.361 -0.0684  0.5980  0.1446
 1078W        W 4676  13.613   0.902  15.616  0.0514  0.2049 -0.0362
 1079W        W 4677  10.869   8.173  15.426 -0.1314 -0.0706 -0.1920
 1080W        W 4678  14.161   1.488  11.815 -0.1250 -0.0893  0.0580
 1081W        W 4679   6.580  12.702   8.011 -0.1762  0.1501 -0.1316
 1082W        W 4680  16.193   8.372   9.067 -0.2474 -0.0023  0.1848
 1083W        W 4681   3.921  11.966   1.108  0.3102  0.0222  0.3231
 1084W        W 4682   2.559  10.823   4.211  0.1006  0.2500 -0.2634
 1085W        W 4683   2.901  13.214  13.736  0.0620 -0.0173  0.1575
 1086W        W 4684   8.862  14.295   7.566 -0.1778 -0.0624  0.1232
 1087W        W 4685  10.215   3.084   4.815 -0.0139  0.1100 -0.0992
 1088W        W 4686  14.174  15.880  12.504 -0.0776 -0.0699 -0.0155
 1089W        W 4687  15.593   3.580   7.358 -0.0279  0.0155 -0.0582
 1090W        W 4688  10.606   4.677   0.067  0.0084  0.2001  0.0651
 1091W        W 4689   1.994   8.977  14.527 -0.1894  0.3596  0.0889
 1092W        W 4690   8.888  13.282  11.093  0.0040 -0.0391  0.2205
 1093W        W 4691   2.314   4.219  16.389  0.1398 -0.1279  0.1089
 1094W        W 4692  15.175   9.716  12.306  0.1629 -0.3349 -0.0343
 1095W        W 4693   5.440   3.120   6.661  0.1024 -0.1567  0.0500
 1096W        W 4694   1.045   2.051   0.476  0.0922  0.0675 -0.3097
 1097W        W 4695   3.129   7.166  12.235 -0.1110 -0.2547 -0.1610
 1098W        W 4696  15.178  10.742  16.096 -0.2791  0.0554  0.0335
 1099W        W 4697   6.671   4.515   4.579  0.1148  0.2519  0.3098
 1100W        W 4698  15.718   4.692  13.790  0.1430  0.0349 -0.1891
 1101W        W 4699  10.423  11.511  11.044 -0.0417  0.1868  0.1152
 1102W        W 4700   4.033   2.518  14.417 -0.0420  0.1406  0.0092
 1103W        W 4701   0.179   9.529  10.692 -0.0765  0.2582  0.1005
 1104W        W 4702   8.204   3.887   8.867  0.3991 -0.0484 -0.2000
 1105W        W 4703  14.580   3.570   0.800  0.0606  0.2303 -0.0189
 1106W        W 4704   2.639   0.179   9.353  0.0383 -0.1883 -0.0329
 1107W        W 4705   9.559   4.407  12.377  0.2063  0.0617 -0.1495
 1108W        W 4706   2.685   8.495   2.283 -0.0038  0.0782 -0.2786
 1109W        W 4707   3.084   5.276   5.042  0.1339  0.1390  0.1239
 1110W        W 4708  11.362   6.828  12.330 -0.1252 -0.4009 -0.2386
 1111W        W 4709   4.532   2.483   3.033  0.2328 -0.1898  0.0534
 1112W        W 4710   9.707   1.355   2.800  0.0771 -0.0733  0.2088
 1113W        W 4711   8.530  15.176  11.537  0.0092 -0.0154 -0.1100
 1114W        W 4712   8.737  12.229   3.339 -0.1714 -0.0641 -0.1120
 1115W        W 4713  15.066   0.373  16.382  0.4441 -0.0434 -0.1181
 1116W        W 4714   0.629  10.119   0.953  0.0723 -0.0540 -0.0434
 1117W        W 4715   8.571   3.269   4.119  0.3927 -0.1222  0.0683
 1118W        W 4716   7.709   7.573  12.089  0.1221 -0.0783  0.5243
 1119W        W 4717   8.622   6.597   0.143 -0.3617  0.1208  0.0257
 1120W        W 4718   1.333   6.593  16.273  0.0416 -0.0232 -0.0586
 1121W        W 4719   0.195  15.497  11.576 -0.0988  0.1108  0.0601
 1122W        W 4720   0.422  10.691   7.540 -0.1277 -0.0731  0.0793
 1123W        W 4721   1.592   6.870  15.958 -0.1300 -0.2393 -0.1193
 1124W        W 4722  14.720   6.233  14.948  0.2616 -0.0153 -0.0013
 1125W        W 4723  11.306   9.558  13.559  0.4046  0.1070  0.2361
 1126W        W 4724   1.183  11.262   9.454 -0.2029 -0.2288  0.1106
 1127W        W 4725   9.679   3.444  16.192  0.0857 -0.0344  0.0943
 1128W        W 4726   4.537  16.215  14.079  0.3330  0.0121  0.0576
 1129W        W 4727  15.275  15.079   8.053 -0.0165  0.2441 -0.1452
 1130W        W 4728   0.019  16.278  12.838 -0.0659  0.1694  0.0349
 1131W        W 4729   4.938  10.393   7.277  0.0526  0.0070 -0.0104
 1132W        W 4730  14.714  13.517   4.409  0.1512  0.0130  0.0108
 1133W        W 4731  12.205   0.858  11.227 -0.0230  0.0377 -0.0215
 1134W        W 4732   3.263   4.330   6.544  0.3097 -0.0297 -0.1603
 1135W        W 4733  10.963  14.449  13.502 -0.4268 -0.1643 -0.0346
 1136W        W 4734   7.935   9.093   6.941  0.1507 -0.1651  0.0050
 1137W        W 4735   4.870   7.097   1.592  0.2435 -0.0566 -0.0455
 1138W        W 4736  16.041   1.815   9.758  0.0398 -0.0600  0.1277
 1139W        W 4737   3.835   6.117  12.667 -0.5235  0.0313  0.0825
 1140W        W 4738  12.219   4.582  14.717 -0.0012  0.2517  0.2247
 1141W        W 4739   4.513   6.351   6.664  0.0540 -0.1041  0.3313
 1142W        W 4740  11.673  14.964   8.162 -0.2437  0.0801  0.1765
 1143W        W 4741  16.234  10.800  14.736  0.3865  0.0113  0.1369
 1144W        W 4742   1.680   6.097  13.248 -0.1241 -0.0424  0.0888
 1145W        W 4743   7.323   7.942  16.057 -0.2765  0.1794  0.2527
 1146W        W 4744   1.446   3.048  15.973 -0.1352  0.0516 -0.3029
 1147W        W 4745   7.520  14.237  15.145  0.0274  0.3688 -0.2518
 1148W        W 4746   5.533  15.173   7.431 -0.0727 -0.4490  0.0282
 1149W        W 4747   6.207   0.042   9.603  0.4685 -0.1553 -0.0323
 1150W        W 4748  16.202   0.564  15.268 -0.0374 -0.0489 -0.2187
 1151W        W 4749   2.261   8.902   2.905  0.0046  0.1164 -0.0283
 1152W        W 4750  10.218   4.563  15.112  0.1466 -0.1784 -0.1101
 1153W        W 4751   6.959   2.798   3.125 -0.1171  0.2677 -0.1111
 1154W        W 4752   6.595  11.163  15.806 -0.0797  0.1170 -0.0163
 1155W        W 4753  10.731   3.200   2.838 -0.3319 -0.0589 -0.3192
 1156W        W 4754   2.439  16.105  11.098  0.1932  0.2955 -0.1501
 1157W        W 4755  10.254  14.269   9.192  0.2862  0.1654 -0.1646
 1158W        W 4756   7.208   8.893   2.287  0.1104  0.1379  0.0873
 1159W        W 4757  13.190  10.848   7.601 -0.3100  0.2138 -0.1719
 1160W        W 4758  16.323  12.022  14.693  0.0812  0.0884 -0.3505
 1161W        W 4759  11.152  11.207  13.484 -0.0227  0.3687 -0.0660
 1162W        W 4760   2.142  14.025  12.118 -0.0753 -0.0769 -0.1644
 1163W        W 4761   3.863   4.089   4.890  0.0436 -0.5277 -0.0114
 1164W        W 4762  12.934  15.614   4.770 -0.0518  0.1548 -0.1207
 1165W        W 4763   4.030   0.090  13.281 -0.2360  0.2896  0.1562
 1166W        W 4764  13.767   3.846   9.617 -0.1835 -0.0085 -0.0695
 1167W        W 4765   1.798  13.028   0.881 -0.1877  0.1443 -0.1548
 1168W        W 4766   5.748   4.087  13.316  0.1346  0.1017 -0.1002
 1169W        W 4767   2.939   7.160  14.334 -0.1485  0.2115 -0.0346
 1170W        W 4768   7.030   6.829   6.691  0.0360 -0.1864  0.2426
 1171W        W 4769   0.873   9.129  12.340  0.1647 -0.1530  0.3584
 1172W        W 4770   9.022  14.011   4.702  0.0368  0.0442  0.1008
 1173W        W 4771   4.451   5.699  13.326 -0.1123  0.1494  0.0071
 1174W        W 4772   3.132  11.876   5.839 -0.0912  0.2184  0.1706
 1175W        W 4773   1.280   7.534  11.271 -0.1701  0.1717  0.0302
 1176W        W 4774  10.718   8.562  12.461  0.0888 -0.0102  0.0438
 1177W        W 4775  12.590  12.103   5.221 -0.2097 -0.2195 -0.0415
 1178W        W 4776   2.227   5.112  12.321  0.2908  0.1121  0.0591
 1179W        W 4777   0.561   8.176   4.514 -0.4113  0.0971  0.1026
 1180W        W 4778   0.930   3.111   7.702  0.0656  0.0868 -0.1816
 1181W        W 4779  12.778   1.198  13.142 -0.0933 -0.1188  0.0814
 1182W        W 4780   1.220   5.713   3.513  0.0201  0.1102 -0.0767
 1183W        W 4781   0.298  15.393  12.986 -0.0162  0.0860  0.1327
 1184W        W 4782  14.292  13.780  10.467 -0.2417  0.2915 -0.3600
 1185W        W 4783   7.770  15.093  11.909 -0.3264  0.0959  0.1981
 1186W        W 4784   3.741   1.263  11.771 -0.1499 -0.0839 -0.3604
 1187W        W 4785  16.001   3.647  12.399  0.0817  0.3975 -0.0910
 1188W        W 4786   3.179  12.421  11.820  0.0437 -0.0901  0.3963
 1189W        W 4787   9.503   3.497  10.867 -0.0961 -0.2703  0.2463
 1190W        W 4788   4.295  15.237   5.908  0.1993  0.2220  0.1487
 1191W        W 4789  15.742   0.203   1.903  0.1068 -0.0229  0.0691
 1192W        W 4790  10.876   2.877  15.081  0.1093  0.0226 -0.0184
 1193W        W 4791   6.184   3.831   6.377  0.2988 -0.1033 -0.1275
 1194W        W 4792   5.904  13.852   4.337  0.0093  0.1090 -0.1036
 1195W        W 4793  14.513   2.291   8.939 -0.2290  0.1685  0.1194
 1196W        W 4794   3.218  14.358  11.047  0.0688 -0.1646 -0.2094
 1197W        W 4795   0.880   3.987  11.934  0.2649  0.1970 -0.0551
 1198W        W 4796  15.147   6.384  15.262  0.0923  0.0260  0.0114
 1199W        W 4797  10.488   8.796   7.622 -0.3366  0.1940 -0.0498
 1200W        W 4798   8.483  15.847  11.402  0.0191 -0.1198  0.1203
 1201W        W 4799  11.077   9.769   8.249  0.1635 -0.0876 -0.4222
 1202W        W 4800  14.169   7.567  15.996 -0.0019 -0.0716 -0.1215
 1203W        W 4801   5.428  12.620   8.364 -0.2288  0.0477 -0.0596
 1204W        W 4802   6.371   4.788   6.208 -0.1032  0.0255 -0.0201
 1205W        W 4803  15.439   1.277  12.225 -0.2753  0.0095  0.2690
 1206W        W 4804  15.284   1.213   4.955 -0.0078  0.3976  0.0894
 1207W        W 4805   4.946  10.936  11.441 -0.0662  0.1893  0.0906
 1208W        W 4806   6.782   5.339   2.587  0.1500 -0.1896 -0.0923
 1209W        W 4807  11.241  13.953   9.651 -0.0208 -0.2067 -0.1863
 1210W        W 4808   2.142  10.305  16.326  0.0502  0.2374 -0.0953
 1211W        W 4809   5.271   5.241  10.204  0.2485 -0.0713  0.0507
 1212W        W 4810   8.038  14.538   8.640 -0.1365 -0.1760 -0.0603
 1213W        W 4811   9.577   2.140  12.827 -0.0319  0.0542 -0.2932
 1214W        W 4812  14.576  12.411  15.079  0.0084  0.2072 -0.2286
 1215W        W 4813   5.670  14.434  10.614 -0.3849 -0.1601  0.0722
 1216W        W 4814  15.460   8.596   0.308 -0.3063 -0.1144 -0.1574
 1217W        W 4815  16.382   4.518  14.970 -0.3364 -0.0088  0.4125
 1218W        W 4816   1.734   1.469   4.276 -0.2868  0.0646 -0.1563
 1219W        W 4817   8.147   8.461   8.507 -0.3662  0.1742 -0.0213
 1220W        W 4818   1.665   4.238   7.351 -0.2193  0.1213  0.2205
 1221W        W 4819   6.418  13.538   3.352  0.1823 -0.0557 -0.2111
 1222W        W 4820  12.613   0.327   7.584  0.1106 -0.0204 -0.0295
 1223W        W 4821   3.030  16.173   2.152  0.3814  0.1472 -0.0978
 1224W        W 4822  13.305   6.768  11.280  0.2778  0.0174  0.0056
 1225W        W 4823  14.626  16.148   3.770  0.2303  0.0126 -0.0720
 1226W        W 4824  11.227   2.920   6.351 -0.1052 -0.0345  0.0764
 1227W        W 4825   8.411  10.668   7.383  0.0923 -0.2375  0.0558
 1228W        W 4826   8.314  14.571  10.760  0.1125 -0.1761  0.0251
 1229W        W 4827  14.259   1.995  15.842 -0.2720  0.1171 -0.3827
 1230W        W 4828   7.328  15.616   2.241  0.1423  0.1135  0.1291
 1231W        W 4829   5.300  12.141  15.221 -0.0261 -0.0409  0.1779
 1232W        W 4830   3.709   3.296   8.555 -0.0140 -0.0698 -0.0914
 1233W        W 4831   2.800   0.408   2.042 -0.0999 -0.2308  0.2944
 1234W        W 4832  10.932   6.019   2.875  0.0768  0.2920 -0.0542
 1235W        W 4833   9.535   2.684   6.879 -0.0958 -0.1871  0.0893
 1236W        W 4834   0.746  12.427   0.492  0.1494  0.2093  0.2245
 1237W        W 4835  15.711  12.234  10.774 -0.2823  0.2019 -0.0454
 1238W        W 4836  11.487   3.847  11.688  0.1304 -0.0638 -0.0735
 1239W        W 4837   5.716  14.308  10.134  0.0140 -0.0358 -0.3176
 1240W        W 4838   6.571   5.428   1.326 -0.1786  0.0232  0.0137
 1241W        W 4839   5.711   6.765   6.893  0.1624  0.4202 -0.2760
 1242W        W 4840   7.727   4.317   7.140 -0.1312  0.1295 -0.1057
 1243W        W 4841  15.605   8.628   2.320 -0.0013 -0.1029  0.1389
 1244W        W 4842   3.387   5.603   4.873 -0.1361 -0.2183 -0.0818
 1245W        W 4843   7.310   7.376  16.031 -0.0926 -0.0576 -0.0215
 1246W        W 4844  15.230   0.952   2.516 -0.2676 -0.2575 -0.0677
 1247W        W 4845   9.998  11.618   8.270  0.0039  0.0506 -0.3274
 1248W        W 4846  12.535   7.318  13.704 -0.1034  0.1732  0.0923
 1249W        W 4847   4.494  14.564  16.365 -0.1603 -0.0205  0.1626
 1250W        W 4848   5.619  15.345   7.882  0.2026  0.2293  0.0028
 1251W        W 4849   9.706   2.938   2.917  0.1534 -0.0164  0.0789
 1252W        W 4850   7.531   6.853   9.783  0.1449  0.2767 -0.0146
 1253W        W 4851   1.722   8.072  13.686 -0.4390  0.0516 -0.7443
 1254W        W 4852   7.767  10.963   9.200  0.0535  0.0107  0.0740
 1255W        W 4853   2.993   8.389   7.445 -0.0239  0.1083 -0.0199
 1256W        W 4854  13.533   1.990   4.776  0.0100 -0.0426  0.1382
 1257W        W 4855   6.666   7.616  14.697 -0.1366 -0.2434 -0.2012
 1258W        W 4856  12.242   6.008  13.615 -0.0937  0.4980 -0.2918
 1259W        W 4857  16.322   1.776  11.986  0.0311 -0.1177 -0.1338
 1260W        W 4858   7.037   2.808  13.501  0.0054 -0.3179 -0.3199
 1261W        W 4859   5.974   8.966   7.108  0.2649 -0.2107 -0.3689
 1262W        W 4860   1.966   0.329  15.268 -0.1329  0.1257 -0.1407
 1263W        W 4861  16.019  13.666   0.066 -0.0601 -0.1848  0.1190
 1264W        W 4862  14.074  15.696   1.500 -0.1398 -0.4321 -0.0833
 1265W        W 4863   3.421   3.363  11.456  0.0469  0.2131  0.0848
 1266W        W 4864   6.166   6.594   8.149 -0.1291  0.2752 -0.0955
 1267W        W 4865   0.356  10.936   8.027  0.0123  0.1728 -0.1689
 1268W        W 4866   2.621   4.350  11.363 -0.1722 -0.0408 -0.2465
 1269W        W 4867   8.909  10.185  10.735  0.0196 -0.0769 -0.0359
 1270W        W 4868  16.243   9.735   5.274 -0.0080 -0.0042 -0.0427
 1271W        W 4869   6.931   7.828   8.263 -0.1122 -0.1422  0.1028
 1272W        W 4870  15.110   8.461   5.766 -0.3836  0.4194  0.0024
 1273W        W 4871   9.684   3.440  14.599 -0.1548 -0.1361  0.3322
 1274W        W 4872  10.131   1.475   0.516  0.0153 -0.2026  0.0251
 1275W        W 4873   6.336   0.000   2.794 -0.0437 -0.3536  0.0479
 1276W        W 4874  12.091   2.689  16.130 -0.1179 -0.4115 -0.0192
 1277W        W 4875   4.394  10.594  14.232 -0.2785  0.0224 -0.0260
 1278W        W 4876   0.335   5.577   8.821 -0.1482 -0.0977 -0.0145
 1279W        W 4877  10.884   2.176  13.118  0.0328  0.0780  0.3253
 1280W        W 4878   7.622  10.241  14.755  0.0858  0.0923 -0.1847
 1281W        W 4879  15.309  16.266   7.311 -0.0960 -0.2159  0.1923
 1282W        W 4880   8.913   4.734   3.428 -0.5249 -0.1196  0.0149
 1283W        W 4881  11.694  14.485  12.089 -0.2576 -0.1204 -0.4447
 1284W        W 4882   5.484   7.109   3.896 -0.2479 -0.0133 -0.4014
 1285W        W 4883   5.844  10.704  15.483  0.2886 -0.1176  0.0101
 1286W        W 4884  15.006   9.476  10.346 -0.3234  0.0293 -0.0291
 1287W        W 4885   9.881  13.063   0.505 -0.1804 -0.2009  0.1387
 1288W        W 4886   6.223   8.994  10.138 -0.0290  0.0471  0.1181
 1289W        W 4887  12.394   4.163   6.992  0.0259 -0.0420  0.0114
 1290W        W 4888   7.931   7.999   0.401  0.1581 -0.0667  0.1907
 1291W        W 4889   1.957  15.125   5.650 -0.1766  0.1862  0.1518
 1292W        W 4890   3.766  10.979  10.591 -0.1670  0.1959  0.0048
 1293W        W 4891  12.358   7.912   1.975  0.0216 -0.3125 -0.2995
 1294W        W 4892   8.706   3.271  13.571  0.4133 -0.1127 -0.1351
 1295W        W 4893  12.459  13.606  15.619 -0.0969  0.1148 -0.2490
 1296W        W 4894  10.005  16.106  11.612 -0.0427  0.3679 -0.0601
 1297W        W 4895   8.311  11.416   8.455 -0.0442 -0.1176 -0.0704
 1298W        W 4896  12.313   1.306  12.235 -0.0639  0.2765  0.4503
 1299W        W 4897   9.454   7.214   6.850  0.0199 -0.2677  0.1055
 1300W        W 4898   8.128   0.613  12.296 -0.0399 -0.0299  0.0767
 1301W        W 4899  13.317   7.878   5.184  0.0109 -0.2564  0.1963
 1302W        W 4900   9.172   5.342   5.255 -0.2427  0.0486  0.0041
 1303W        W 4901   1.513   9.617   6.169 -0.4146 -0.0444  0.1535
 1304W        W 4902   8.537  10.093   7.896 -0.1295  0.0515 -0.0657
 1305W        W 4903  12.262   8.707   1.176 -0.0714  0.0919  0.0047
 1306W        W 4904  15.062   9.538   8.253 -0.0981  0.0985 -0.3351
 1307W        W 4905   7.099   3.570   1.889  0.2042  0.1230  0.1547
 1308W        W 4906  12.181  16.141   7.106 -0.1100 -0.2927  0.1226
 1309W        W 4907  12.251   2.604   5.906  0.1904 -0.5074  0.2606
 1310W        W 4908   3.087  16.010  13.979 -0.1145 -0.1889  0.0549
 1311W        W 4909   2.517   9.315   8.346  0.0599  0.1358  0.0726
 1312W        W 4910  11.731   7.962  14.281 -0.0073  0.1991  0.0429
 1313W        W 4911   6.325   4.102   5.961  0.0670 -0.0682  0.4663
 1314W        W 4912  14.312  14.334   1.918  0.2059 -0.0823  0.0161
 1315W        W 4913  12.915  10.284  14.708 -0.0363 -0.0026  0.1902
 1316W        W 4914   9.672   3.812  14.987  0.1316 -0.0432  0.0066
 1317W        W 4915   8.808  13.594   7.239  0.0862  0.2021  0.1743
 1318W        W 4916  11.028   3.320  11.012 -0.1071 -0.2205  0.3896
 1319W        W 4917   5.690   9.174  11.337  0.1854 -0.1527 -0.1025
 1320W        W 4918  10.547   3.233   2.027 -0.0683  0.0524  0.3208
 1321W        W 4919   6.294   6.061  14.511  0.1073 -0.3678  0.0946
 1322W        W 4920  14.285   6.958  13.828 -0.2005  0.2197  0.2389
 1323W        W 4921  14.144   4.435   9.916 -0.1269  0.1346 -0.2425
 1324W        W 4922   4.125  16.145   3.663  0.2476 -0.3259 -0.0012
 1325W        W 4923  15.132  15.027   8.523  0.0801  0.1314  0.2296
 1326W        W 4924   5.407  14.761   6.152  0.0292  0.3212  0.0157
 1327W        W 4925   6.108   7.185   2.255  0.0063 -0.1928  0.1570
 1328W        W 4926   2.209   9.193  15.753  0.3587  0.0998 -0.4598
 1329W        W 4927  15.087  10.209  10.853 -0.3260 -0.4290 -0.1896
 1330W        W 4928   6.025  10.956   2.015 -0.1606 -0.0175 -0.1821
 1331W        W 4929   0.146  14.486  13.890  0.1548  0.2405  0.0577
 1332W        W 4930   3.650   5.378   0.920 -0.1233  0.0321  0.3652
 1333W        W 4931   1.538   3.284  11.194  0.0045  0.0721 -0.1258
 1334W        W 4932  11.446   6.133  14.715 -0.0374  0.4085  0.0827
 1335W        W 4933   2.913   9.941  15.752  0.1546  0.2302  0.2045
 1336W        W 4934  10.059   8.362   5.342 -0.4427 -0.2646  0.1405
 1337W        W 4935  14.685  15.526  14.151  0.3799 -0.3618  0.0046
 1338W        W 4936   0.755  14.540   8.470  0.0174 -0.1641 -0.3591
 1339W        W 4937   7.791   4.721  10.423 -0.0939 -0.1393  0.3322
 1340W        W 4938  14.928   9.794   1.159 -0.0582 -0.2183 -0.1673
 1341W        W 4939  12.355   7.156  15.957 -0.1261 -0.1665 -0.4179
 1342W        W 4940  15.973   3.065   6.645  0.0889  0.1088  0.0755
 1343W        W 4941   8.561   9.794   4.574 -0.0488  0.0330  0.3247
 1344W        W 4942   1.518   0.564  14.269  0.0527  0.0752 -0.2668
 1345W        W 4943   5.188   3.580   1.510 -0.0256 -0.2021 -0.1164
 1346W        W 4944   5.034  13.911  11.283  0.1362  0.1846 -0.3848
 1347W        W 4945   9.768   7.723  16.223 -0.0606 -0.2823  0.1171
 1348W        W 4946  12.482  10.603   6.815  0.1538  0.0613  0.3223
 1349W        W 4947   0.182   1.549   8.136  0.3451  0.1165 -0.0695
 1350W        W 4948  12.223   0.359  15.613 -0.0470  0.0505  0.1590
 1351W        W 4949  15.165  11.601   6.007  0.4291 -0.0983  0.4441
 1352W        W 4950   8.005   7.373   5.337  0.0308  0.2659 -0.1410
 1353W        W 4951  11.891   7.554   1.879  0.0186 -0.2596  0.2749
 1354W        W 4952   8.380  15.708   2.916 -0.1637  0.0378 -0.2354
 1355W        W 4953  15.516  10.488   1.915 -0.0162 -0.1683 -0.0543
 1356W        W 4954   0.892  12.096   6.356 -0.1354 -0.0362 -0.0341
 1357W        W 4955   3.954   0.331   6.789  0.1403 -0.2117  0.1809
 1358W        W 4956  11.023  11.408   1.716  0.0548 -0.3424 -0.2935
 1359W        W 4957   9.310   0.054  15.151 -0.2066 -0.2526 -0.1272
 1360W        W 4958  12.834   0.587   5.971 -0.2371  0.0047 -0.2834
 1361W        W 4959   3.382   2.539   0.546 -0.2100  0.2812 -0.4501
 1362W        W 4960   9.766   6.857   3.567  0.1466  0.2630 -0.0541
 1363W        W 4961  10.601  15.845  16.209  0.2403 -0.1841  0.0028
 1364W        W 4962  13.931   7.508   6.054  0.1522  0.1779  0.2441
 1365W        W 4963   2.366  10.063  13.383 -0.0648  0.0765  0.3150
 1366W        W 4964   9.059   3.746  11.854 -0.1507  0.0129 -0.1354
 1367W        W 4965   6.765   5.544  12.222  0.0124 -0.1492 -0.0904
 1368W        W 4966   3.446   4.223   8.920 -0.2319 -0.1959  0.1198
 1369W        W 4967   1.301   0.417  10.410  0.1420 -0.0141  0.1749
 1370W        W 4968  12.335  14.459   9.267  0.1296  0.0644 -0.0038
 1371W        W 4969   8.924   5.853   9.918 -0.2711  0.0470 -0.0291
 1372W        W 4970  12.077   5.159   5.081 -0.0959  0.1299  0.1237
 1373W        W 4971  15.454   1.192  11.223 -0.3455 -0.0418 -0.1247
 1374W        W 4972   6.321   3.474   1.537  0.0269  0.3014  0.0242
 1375W        W 4973   4.070  15.578  12.230 -0.0926  0.0550 -0.1314
 1376W        W 4974   9.122   4.509  12.724 -0.0480  0.1021 -0.0464
 1377W        W 4975   2.034  11.764   5.948  0.0050  0.0755  0.0415
 1378W        W 4976  14.034   8.537  12.138  0.2387 -0.3055 -0.3453
 1379W        W 4977  14.828   1.397   6.591  0.2094  0.0749  0.0068
 1380W        W 4978   7.947   4.275  13.091 -0.1889  0.0118 -0.0130
 1381W        W 4979   1.713   2.843   4.406 -0.1434 -0.0578  0.2692
 1382W        W 4980  15.787   5.832   6.442 -0.1054 -0.2082  0.0739
 1383W        W 4981   0.800   3.288   4.062 -0.0139  0.0597  0.0675
 1384W        W 4982  15.620  10.618   8.564  0.0261 -0.5339  0.1532
 1385W        W 4983   0.921  11.720   9.333  0.1382  0.0261  0.0470
 1386W        W 4984   5.912   3.315  13.714 -0.2788 -0.0320  0.3872
 1387W        W 4985  13.028  12.786  14.724  0.3817 -0.0735 -0.0009
 1388W        W 4986   5.085   3.936   9.010 -0.0114  0.1128 -0.0796
 1389W        W 4987  15.851   3.322   5.274  0.0446 -0.1651  0.1920
 1390W        W 4988  14.778  15.041   7.926  0.1920 -0.1649 -0.1737
 1391W        W 4989   5.333   7.340   3.020 -0.1211  0.2528  0.0071
 1392W        W 4990  14.310   3.813   4.648 -0.0692 -0.0203  0.0846
 1393W        W 4991  14.054  16.373  12.762 -0.0461 -0.0632 -0.0705
 1394W        W 4992  12.858  14.763   6.126  0.1248  0.0330  0.0695
 1395W        W 4993   9.505   6.645   2.535  0.0194  0.3775  0.2669
 1396W        W 4994   0.153   0.735  10.437 -0.2782  0.0306 -0.2945
 1397W        W 4995   3.207  16.213  13.533  0.2043  0.0744  0.2213
 1398W        W 4996  11.757   3.971  10.541 -0.0547 -0.3665  0.0887
 1399W        W 4997   9.856   0.922   6.797 -0.0357 -0.1600 -0.3415
 1400W        W 4998   9.917   1.548  15.662 -0.1108 -0.0583  0.2472
 1401W        W 4999   3.148  14.037  14.129 -0.0235  0.2166 -0.0730
 1402W        W 5000   0.009  12.590  11.753  0.1175  0.0951  0.0666
 1403W        W 5001   8.629   0.205   5.690  0.1234 -0.0146 -0.5178
 1404W        W 5002  14.898  13.598  15.553 -0.0428 -0.0112  0.2246
 1405W        W 5003  11.105   7.251   1.899  0.1524 -0.0559  0.2744
 1406W        W 5004   5.501   6.389   7.116  0.2590  0.1832  0.2497
 1407W        W 5005  16.187  10.678   0.177  0.2022  0.0818  0.0861
 1408W        W 5006  15.208  10.324   0.489 -0.0791 -0.0678 -0.1575
 1409W        W 5007   2.406   1.077   2.204  0.0764 -0.2347  0.2353
 1410W        W 5008   3.525   0.601   0.384  0.0673  0.2106 -0.1538
 1411W        W 5009   6.896   8.067  13.886 -0.1885 -0.0919 -0.0936
 1412W        W 5010   0.694   0.216   7.468  0.0620  0.1807 -0.1316
 1413W        W 5011   9.843   8.065  15.625  0.0145  0.0208  0.0663
 1414W        W 5012  13.566   7.646   0.291 -0.0711  0.0267 -0.0148
 1415W        W 5013   7.419  12.593   2.900  0.2719  0.0890  0.0329
 1416W        W 5014   1.621   1.369  10.054 -0.0335  0.0779 -0.0412
 1417W        W 5015  12.281  12.810  13.292  0.1749 -0.1470  0.2753
 1418W        W 5016  15.428   0.924   8.807  0.0627 -0.0611 -0.3705
 1419W        W 5017   3.209  13.378   8.118 -0.2154  0.2585 -0.0576
 1420W        W 5018   8.837  12.495   6.111  0.1550  0.1028 -0.0092
 1421W        W 5019   5.526   5.620   4.422  0.0656 -0.0755  0.0377
 1422W        W 5020  11.428  14.382  11.615  0.4003  0.1145 -0.1341
 1423W        W 5021  15.529   5.853   6.923  0.0255  0.2900  0.1417
 1424W        W 5022   2.145   8.579  11.918 -0.1137  0.0926  0.1109
 1425W        W 5023  11.051   3.164   9.481 -0.0126  0.2583  0.0641
 1426W        W 5024   0.967   8.676  15.102 -0.0263  0.1393  0.0165
 1427W        W 5025   7.207   3.806   1.316  0.1017 -0.1869  0.0972
 1428W        W 5026   6.270  16.255  11.020  0.1426  0.0373 -0.0801
 1429W        W 5027   2.561   4.578   4.898 -0.1269  0.1560  0.0025
 1430W        W 5028  11.820   5.155   0.528 -0.0243  0.0580 -0.1217
 1431W        W 5029   5.218  12.288  10.296  0.0554 -0.2013  0.1698
 1432W        W 5030   5.332   4.354  16.249  0.0308  0.1519 -0.1472
 1433W        W 5031   7.973  13.940   5.854  0.4065 -0.0015 -0.0690
 1434W        W 5032   9.952  13.897  15.892 -0.1037  0.3908  0.0198
 1435W        W 5033   8.112  14.350   1.925  0.1066 -0.0726  0.1857
 1436W        W 5034   4.233  11.984  15.530 -0.2061  0.0197 -0.0888
 1437W        W 5035  14.640   0.133   4.112  0.0117  0.1357 -0.1178
 1438W        W 5036   4.478   1.216   5.940  0.0045 -0.1232  0.1048
 1439W        W 5037   3.576  11.782  14.891 -0.1351 -0.4132  0.0676
 1440W        W 5038   3.137   6.477   5.882  0.2772 -0.0081 -0.2169
 1441W        W 5039  12.228   2.104   0.816  0.0880  0.2071  0.0709
 1442W        W 5040  15.448  14.686   7.207 -0.1087 -0.0085 -0.2236
 1443W        W 5041  10.062   4.162  14.839  0.1722  0.4152  0.2953
 1444W        W 5042   8.427  10.813   8.689  0.1754 -0.3097  0.0670
 1445W        W 5043  13.042   8.376   9.297 -0.0854  0.1110  0.3050
 1446W        W 5044   0.277   4.594   3.788  0.1644  0.2370 -0.0568
 1447W        W 5045  12.707   0.488   5.440 -0.1099  0.0057  0.0134
 1448W        W 5046   8.122   8.599   0.103 -0.2034  0.0825  0.0215
 1449W        W 5047   5.213  16.057   5.840  0.0765 -0.2111  0.0134
 1450W        W 5048   3.413   4.785  13.124  0.1678 -0.0563 -0.4087
 1451W        W 5049  12.981  13.660  10.405 -0.0585 -0.2644  0.1492
 1452W        W 5050   7.969  16.177  14.690 -0.3661 -0.0307 -0.1251
 1453W        W 5051  10.524  13.716  14.293  0.0158  0.0805  0.1822
 1454W        W 5052  11.559  11.082   6.865 -0.1698 -0.2820 -0.0551
 1455W        W 5053   7.721   3.974   4.188 -0.2362  0.1693 -0.0268
 1456W        W 5054   3.957  14.436  15.206 -0.1324 -0.0314  0.0384
 1457W        W 5055   1.952   5.406  14.955 -0.0267  0.0490  0.3087
 1458W        W 5056   3.185  16.277  15.789 -0.0276 -0.1463 -0.2240
 1459W        W 5057   7.608   6.702  15.489  0.1143 -0.0961 -0.3809
 1460W        W 5058   4.504  12.693   4.906 -0.2621 -0.3432  0.2156
 1461W        W 5059  13.732   4.391  11.314 -0.1481  0.1295 -0.0109
 1462W        W 5060   8.172   4.307   7.753 -0.0181 -0.2769 -0.1432
 1463W        W 5061   6.980  10.220   7.159 -0.1075  0.2094 -0.2329
 1464W        W 5062   2.293   8.314   5.816 -0.0879  0.0924 -0.3503
 1465W        W 5063   9.363  13.100  11.468 -0.1487 -0.2444  0.0326
 1466W        W 5064   3.537  13.819  13.652 -0.0016  0.1059  0.1102
 1467W        W 5065  14.359   4.889  14.219 -0.1271  0.1724  0.0848
 1468W        W 5066  10.275   0.079  13.426 -0.0285 -0.2585 -0.0773
 1469W        W 5067   4.205  11.668   0.263  0.0053  0.2421  0.0764
 1470W        W 5068   4.315   3.201   9.783 -0.0362 -0.5397  0.1584
 1471W        W 5069   9.449  13.222   8.330 -0.2134 -0.4233  0.3671
 1472W        W 5070  11.931   7.416   0.408 -0.1158 -0.0602  0.2265
 1473W        W 5071  10.217  10.473   7.024 -0.1640  0.0165  0.2793
 1474W        W 5072   0.705   0.464  15.592 -0.3682  0.1462 -0.0774
 1475W        W 5073   3.603   4.796   1.092 -0.1208 -0.2427 -0.1729
 1476W        W 5074   1.769   1.150   5.572 -0.0376 -0.2059 -0.2680
 1477W        W 5075   8.849  11.903  11.925 -0.0702  0.3110  0.0340
 1478W        W 5076  15.128   4.652  15.582 -0.1254 -0.0946 -0.0748
 1479W        W 5077   3.182   0.515   0.702 -0.2388 -0.2292 -0.0824
 1480W        W 5078   3.074  14.689   0.584 -0.1661  0.0973 -0.0412
 1481W        W 5079  12.343   9.152   9.349  0.5230 -0.0336  0.2908
 1482W        W 5080  15.428   3.119   9.710 -0.1531  0.2084 -0.1489
 1483W        W 5081   7.922  10.196   9.216 -0.2437 -0.0448  0.0373
 1484W        W 5082  10.646   7.320   0.939  0.0836  0.3614 -0.0525
 1485W        W 5083   5.695   9.490   9.231  0.1877 -0.0113  0.0598
 1486W        W 5084   7.989  14.186  15.206 -0.2056  0.0441 -0.2719
 1487W        W 5085   9.185  13.726   5.035  0.3826 -0.1159 -0.0252
 1488W        W 5086  10.169   0.213  11.349 -0.0842  0.2309 -0.0788
 1489W        W 5087   2.739  14.687   8.716 -0.1643 -0.0059 -0.1003
 1490W        W 5088   8.631  11.128   9.255 -0.0821 -0.3648 -0.2230
 1491W        W 5089  13.952   0.288   7.313  0.0377  0.2713  0.5419
 1492W        W 5090   8.804   5.327  16.323  0.0034  0.0888  0.1140
 1493W        W 5091   2.085   9.301  14.122 -0.3902 -0.1498  0.1643
 1494W        W 5092   0.308   9.421  12.856  0.1037  0.2112  0.0901
 1495W        W 5093  11.788  10.669   4.789  0.3193  0.0455  0.1449
 1496W        W 5094  13.801   0.592   6.090  0.2938  0.0605 -0.0457
 1497W        W 5095  13.723  15.441   4.117 -0.2034 -0.2832 -0.3167
 1498W        W 5096   8.093  11.316   4.737  0.0213  0.1702  0.1439
 1499W        W 5097  14.224   2.323  14.375  0.0568  0.1555  0.0476
 1500W        W 5098   7.872   9.750   1.649  0.0003 -0.1321 -0.0710
 1501W        W 5099  11.222  14.135   5.895 -0.0216 -0.2281 -0.3558
 1502W        W 5100   5.801   0.492  15.309 -0.4852 -0.2316 -0.1014
 1503W        W 5101   4.818  10.177   9.634 -0.0465 -0.1639 -0.2509
 1504W        W 5102   1.960   1.300   3.889 -0.1115 -0.1771  0.0631
 1505W        W 5103  10.160  15.938   9.599  0.0494  0.0285 -0.0928
 1506W        W 5104   6.695   2.239  15.291  0.3183 -0.0173  0.1662
 1507W        W 5105  12.871  11.011  13.233  0.3079 -0.0071 -0.2437
 1508W        W 5106   7.280  14.729   9.267 -0.0466 -0.2496 -0.0721
 1509W        W 5107   7.884  13.807  13.367 -0.1948  0.3944 -0.2934
 1510W        W 5108   5.225  10.477   5.897  0.0277  0.0806  0.3317
 1511W        W 5109  12.890  14.387   3.286 -0.0233  0.1539  0.1180
 1512W        W 5110   4.264  13.127   4.636  0.0988  0.1134 -0.1664
 1513W        W 5111   5.659  10.994  10.937  0.2031  0.0045 -0.1777
 1514W        W 5112   8.797  14.212   8.447  0.1926  0.2944  0.0308
 1515W        W 5113   9.570   7.952   2.984 -0.0662 -0.3207 -0.0973
 1516W        W 5114  13.030  12.758   4.728 -0.1165 -0.0310  0.1343
 1517W        W 5115  12.523   8.993   6.328 -0.2927 -0.4010 -0.1517
 1518W        W 5116   0.382  16.079   2.609  0.2383  0.0706  0.0303
 1519W        W 5117  10.637   9.444  13.582 -0.0777  0.0303  0.2724
 1520W        W 5118   1.591   5.141   5.407  0.1143 -0.4053 -0.1401
 1521W        W 5119  15.786   0.261   7.700 -0.1147  0.1434 -0.0125
 1522W        W 5120   2.969   6.515   2.467  0.1251 -0.2190  0.2764
 1523W        W 5121  11.180  10.535  10.105 -0.1028  0.3887 -0.2554
 1524W        W 5122   7.590   1.869   5.607  0.0334 -0.0608  0.1389
 1525W        W 5123   2.598   4.096   3.393 -0.0671  0.0115  0.0231
 1526W        W 5124   9.768   4.782  15.514 -0.3526  0.0079  0.5290
 1527W        W 5125  14.554  14.951   4.427 -0.1751  0.2583  0.0337
 1528W        W 5126   3.463  14.881  16.005 -0.2445 -0.2816 -0.0412
 1529W        W 5127   1.980   1.516  13.398 -0.1177  0.1500 -0.0236
 1530W        W 5128   5.634   4.627   1.749  0.0146  0.2474  0.0545
 1531W        W 5129   2.644  13.277   2.671 -0.4229  0.0986 -0.0637
 1532W        W 5130   6.939   7.780  10.978 -0.2569  0.3041  0.1434
 1533W        W 5131  11.063   2.570  12.820  0.0840  0.0515 -0.2880
 1534W        W 5132   1.145   7.639  15.399 -0.1900 -0.2780  0.2962
 1535W        W 5133   1.435   9.548   8.196 -0.1765 -0.2561 -0.1925
 1536W        W 5134  10.765   7.048   9.123  0.2804  0.0657  0.0036
 1537W        W 5135   2.342   2.995   5.389  0.1394 -0.4572  0.0894
 1538W        W 5136   2.956   3.389  11.135 -0.0277  0.0272  0.3551
 1539W        W 5137   8.253   7.999  14.825 -0.2520  0.0483  0.2152
 1540W        W 5138   8.475   9.044   8.090  0.3689  0.0761 -0.1823
 1541W        W 5139  14.627   9.750   0.782  0.1665  0.1130 -0.0086
 1542W        W 5140  15.453  14.114  13.030  0.1053 -0.2054  0.1058
 1543W        W 5141   8.005  12.718  11.458 -0.2432 -0.0850  0.2518
 1544W        W 5142  13.052   4.288   9.010 -0.1135  0.1457 -0.2114
 1545W        W 5143  13.558  14.553   6.260 -0.5509  0.1696 -0.0949
 1546W        W 5144  12.823   2.729   9.259 -0.1459 -0.1871  0.1013
 1547W        W 5145  15.381   3.238  14.828 -0.1045 -0.2958 -0.2895
 1548W        W 5146  13.868   3.096   5.402 -0.1501  0.2403  0.0601
 1549W        W 5147   8.659  12.362   9.810  0.2127 -0.0672  0.2561
 1550W        W 5148   6.725  11.226   6.253 -0.0300 -0.2235 -0.1888
 1551W        W 5149   8.389  13.906   8.363  0.2657  0.0184 -0.0359
 1552W        W 5150   8.133  12.797  15.094  0.0433 -0.0473 -0.2564
 1553W        W 5151   7.041  11.868   0.359  0.0182 -0.1757  0.0011
 1554W        W 5152  15.716   6.706  11.251 -0.1671 -0.2761  0.0623
 1555W        W 5153   6.009  11.598   0.168 -0.0333 -0.1532 -0.1286
 1556W        W 5154   1.581   3.758   4.379 -0.3610  0.1284 -0.0047
 1557W        W 5155  11.228   2.509   5.550 -0.0916 -0.1509  0.3633
 1558W        W 5156  12.181   1.731   6.805 -0.3111  0.0381 -0.0938
 1559W        W 5157  11.334   6.903  11.665 -0.1311 -0.2557 -0.0385
 1560W        W 5158  10.162  15.437   6.466  0.0479  0.0526  0.1808
 1561W        W 5159   1.630  12.062   6.790 -0.0093 -0.1419 -0.0466
 1562W        W 5160  11.877   5.204   1.854  0.3423  0.1139  0.1496
 1563W        W 5161  12.006   6.776  14.532 -0.1676  0.0082 -0.0294
 1564W        W 5162   8.891   6.258   5.714 -0.0842 -0.0193 -0.1015
 1565W        W 5163   2.470  14.074  10.319 -0.1522 -0.1904 -0.2812
 1566W        W 5164   1.807  11.018   5.958 -0.3053 -0.0070 -0.3037
 1567W        W 5165   9.841  12.808   1.909 -0.0582  0.4804 -0.0643
 1568W        W 5166  15.055  11.555  12.567 -0.0246  0.1431  0.1045
 1569W        W 5167   8.227  12.272  12.438 -0.3387 -0.1996  0.1860
 1570W        W 5168   7.960   6.618  11.662 -0.2038 -0.1376 -0.0317
 1571W        W 5169  11.536   1.431  13.646  0.3994 -0.0974  0.0093
 1572W        W 5170   0.661   7.725   3.807 -0.0419 -0.2560 -0.1113
 1573W        W 5171   5.311   8.167   7.416 -0.2462  0.2279 -0.1058
 1574W        W 5172   1.602   5.226   3.644  0.1858 -0.1894  0.3082
 1575W        W 5173  10.444  14.207  14.987  0.2135  0.1301  0.0701
 1576W        W 5174  15.812   4.641   0.139 -0.2264 -0.0407 -0.0272
 1577W        W 5175   2.520   5.373   5.111  0.0959 -0.1795 -0.3796
 1578W        W 5176   2.473  13.658  10.040 -0.1683  0.1853 -0.1978
 1579W        W 5177  12.647  10.455   5.615  0.1643  0.1447  0.1030
 1580W        W 5178  14.692   3.948  13.211  0.0878 -0.0241  0.1026
 1581W        W 5179   5.639  10.308   7.300 -0.0579 -0.2666 -0.1431
 1582W        W 5180  11.174  12.448   1.339 -0.0047  0.2324 -0.1668
 1583W        W 5181   5.669   2.832  14.012  0.2625  0.2114  0.2206
 1584W        W 5182   6.721   2.292  14.421 -0.0630  0.2865 -0.3219
 1585W        W 5183   4.409   6.858  14.843 -0.0158 -0.0783 -0.0280
 1586W        W 5184   5.808   6.673   0.305  0.0349 -0.0574 -0.2658
 1587W        W 5185   6.375   9.648   8.717 -0.1984  0.1057 -0.1088
 1588W        W 5186  10.771  15.622   7.078 -0.2086  0.0274  0.0413
 1589W        W 5187  13.898   0.980  11.101 -0.2579 -0.0781  0.0874
 1590W        W 5188   6.513  10.373   9.973  0.2055 -0.0854 -0.2343
 1591W        W 5189   7.020  10.123  12.799  0.0056 -0.1727  0.1611
 1592W        W 5190   1.576   8.440   5.298 -0.1767 -0.1088  0.3462
 1593W        W 5191   2.168  13.714  11.693 -0.1773 -0.0080 -0.0348
 1594W        W 5192   6.028   6.577   5.113  0.2130  0.0458 -0.0186
 1595W        W 5193   2.285   3.704   5.929  0.0456  0.1215  0.1596
 1596W        W 5194   8.189  12.768  12.129 -0.1926  0.4979 -0.0005
 1597W        W 5195   7.794  10.904   8.102 -0.2235 -0.0994 -0.0128
 1598W        W 5196  13.769  11.022   2.299  0.0732 -0.4591  0.3310
 1599W        W 5197   1.876   0.267  13.082  0.1306  0.0500 -0.0500
 1600W        W 5198  13.654   8.294   7.106 -0.0296  0.0574  0.0884
 1601W        W 5199   1.343  10.239   6.162 -0.0970  0.0133 -0.0125
 1602W        W 5200  12.586  11.955   9.946 -0.1659 -0.2706  0.1369
 1603W        W 5201   0.925  15.294  10.494 -0.0553  0.0478  0.0617
 1604W        W 5202  14.362   1.097  11.387 -0.0148 -0.1008 -0.1298
 1605W        W 5203   4.997   8.896   2.485  0.5270 -0.0557 -0.3265
 1606W        W 5204   8.532   5.788   0.080  0.2780  0.2407 -0.1136
 1607W        W 5205  10.417   9.133  14.025 -0.0032 -0.2712 -0.1841
 1608W        W 5206   9.304  14.348  11.381  0.0766 -0.2109  0.0660
 1609W        W 5207   5.360   7.537   0.100  0.2275 -0.0966  0.1424
 1610W        W 5208   9.725  16.132   2.899 -0.0595 -0.0093 -0.0357
 1611W        W 5209   9.981   4.228   2.032  0.0808  0.1467  0.0550
 1612W        W 5210  11.555  16.154  16.381  0.1727  0.0054 -0.0326
 1613W        W 5211  10.758  15.166   5.386  0.0468  0.0396  0.0126
 1614W        W 5212   3.062   4.942   7.153  0.0330  0.0584 -0.2680
 1615W        W 5213   4.357   5.557   0.188  0.0929  0.2340 -0.0180
 1616W        W 5214  15.615  11.086  11.217 -0.0573  0.1950 -0.2992
 1617W        W 5215   0.492   0.054   7.934 -0.0962 -0.1828  0.1810
 1618W        W 5216   4.908   7.768   1.681 -0.2436  0.0297  0.4598
 1619W        W 5217  13.060  11.441  13.988 -0.0428  0.1537  0.0840
 1620W        W 5218   4.027   7.134   4.261 -0.0729  0.2130 -0.1176
 1621W        W 5219   5.888   7.914   5.086  0.0636 -0.0722  0.0686
 1622W        W 5220   8.299  15.254   0.285  0.0190 -0.4134  0.2969
 1623W        W 5221   5.627  15.086   3.844 -0.3069 -0.0605  0.1189
 1624W        W 5222   3.252   6.026   1.608 -0.0459  0.0619 -0.0971
 1625W        W 5223  14.068   2.258  16.197  0.3655  0.1149  0.2784
 1626W        W 5224   6.454  12.491  10.482  0.0348  0.0885  0.1739
 1627W        W 5225   1.156  13.819   6.186 -0.2417 -0.0464 -0.0428
 1628W        W 5226  15.419   9.200   5.421  0.0246  0.2144 -0.1136
 1629W        W 5227   7.680   8.845  14.810 -0.3839  0.0661  0.2964
 1630W        W 5228   4.518   5.936   7.686 -0.0586 -0.0133  0.1168
 1631W        W 5229   6.567  11.973   7.177  0.3063  0.0214  0.0054
 1632W        W 5230   6.323   5.099  11.581  0.1347  0.0663  0.1734
 1633W        W 5231   6.200   0.499  15.724 -0.1253 -0.3618  0.0194
 1634W        W 5232   3.860   6.710   4.053  0.0054  0.2220  0.1281
 1635W        W 5233  16.055  16.247  15.025 -0.1397  0.3201 -0.4011
 1636W        W 5234   5.728  13.422  12.036 -0.1336 -0.1264 -0.0051
 1637W        W 5235  14.638   3.800   2.718  0.3016 -0.1461 -0.2394
 1638W        W 5236  13.361   7.817  12.427 -0.2033 -0.1109  0.1420
 1639W        W 5237  11.112  13.954   4.859  0.3729 -0.0544  0.4636
 1640W        W 5238   1.248   0.625  16.288  0.1072  0.0742 -0.4655
 1641W        W 5239   9.857   1.598   1.313 -0.0491  0.0074 -0.2293
 1642W        W 5240   6.508   7.784   4.980 -0.0195 -0.1823  0.1145
 1643W        W 5241   2.421  14.221   0.052  0.0094  0.0775 -0.1871
 1644W        W 5242  10.442   6.893   4.387 -0.1923  0.0805  0.0986
 1645W        W 5243   8.426  10.316   5.034  0.1450  0.0273  0.0777
 1646W        W 5244  13.370   9.500   0.540 -0.0139 -0.0965  0.0593
 1647W        W 5245  16.382  11.821  11.301  0.0138  0.0380 -0.1582
 1648W        W 5246   0.342   1.470   6.043 -0.0481 -0.1620 -0.0797
 1649W        W 5247   1.009   9.688   7.450 -0.1932  0.1573  0.1555
 1650W        W 5248   6.927  15.625   6.373  0.1979  0.0270  0.5033
 1651W        W 5249   3.070   3.968  13.390  0.0131  0.0441  0.4005
 1652W        W 5250   9.718   1.854  11.929  0.0030 -0.0532 -0.0498
 1653W        W 5251   2.287   9.436   9.088  0.2885 -0.0036  0.0781
 1654W        W 5252   8.791  11.793   9.736  0.0606 -0.2676  0.0147
 1655W        W 5253   1.390   6.114  13.773 -0.2628  0.1603  0.3872
 1656W        W 5254   2.936   6.462   7.327  0.0289 -0.1301  0.1190
 1657W        W 5255   3.798   2.824  10.199 -0.2632  0.1088  0.0380
 1658W        W 5256  14.210   1.783  14.502  0.0140  0.1041  0.0323
 1659W        W 5257  15.230  11.147   6.079  0.0826 -0.1508 -0.2645
 1660W        W 5258   3.237   1.139  14.090 -0.3634  0.1783  0.2685
 1661W        W 5259  15.423  10.551  10.658 -0.0915  0.2135  0.0764
 1662W        W 5260  15.778  15.964  10.508 -0.2946  0.0127  0.2258
 1663W        W 5261   0.240  11.394  10.074 -0.2344  0.0579 -0.0371
 1664W        W 5262   2.029   3.369   5.650  0.3870 -0.2488 -0.0853
 1665W        W 5263  14.956   2.075  11.949 -0.0583 -0.3335 -0.3248
 1666W        W 5264   4.628  13.907   4.741  0.0918 -0.1108 -0.0106
 1667W        W 5265   7.646   6.244  12.593  0.1336  0.0632  0.0060
 1668W        W 5266  10.487   5.819   6.227 -0.3178  0.1573 -0.1037
 1669W        W 5267   2.052   7.276  13.887 -0.1653  0.1109 -0.0866
 1670W        W 5268   0.044   5.984   0.495 -0.3341 -0.2334 -0.0582
 1671W        W 5269   9.046   1.441  15.279  0.1413 -0.0876  0.0783
 1672W        W 5270  11.301  11.675   7.698 -0.0484  0.2377 -0.2165
 1673W        W 5271  12.244  13.504   9.710  0.0275 -0.3505  0.2003
 1674W        W 5272   9.779   3.540   7.196 -0.0931 -0.3498  0.2324
 1675W        W 5273   4.428   2.017   4.342 -0.1282 -0.0042 -0.1969
 1676W        W 5274   3.686   3.997   5.371 -0.0725 -0.1300  0.0834
 1677W        W 5275   4.284   7.425  12.748  0.2666 -0.1297  0.0826
 1678W        W 5276   3.654   2.410  10.439 -0.3759 -0.0325 -0.1322
 1679W        W 5277  11.196  13.577   5.977  0.1615 -0.0220 -0.0591
 1680W        W 5278   9.758   1.279   0.268  0.0648  0.2806 -0.0273
 1681W        W 5279  15.606  10.227   8.066 -0.1532 -0.1452 -0.2133
 1682W        W 5280   2.895   3.260   0.370 -0.2054  0.0322 -0.2752
 1683W        W 5281   6.282   0.246   9.183 -0.0145 -0.1008 -0.1958
 1684W        W 5282   7.245   9.113  14.366  0.2116 -0.0222 -0.0369
 1685W        W 5283   7.805   5.380   1.323 -0.1419 -0.2340  0.1804
 1686W        W 5284   8.304  10.156  12.716  0.0593  0.2775 -0.2519
 1687W        W 5285  13.607  15.962  10.802 -0.0031 -0.0718  0.0913
 1688W        W 5286  13.060   9.559   7.320  0.2446 -0.0301 -0.0954
 1689W        W 5287   0.924   7.714  13.897 -0.0874 -0.3310  0.0322
 1690W        W 5288   9.706   6.761  11.126 -0.1564 -0.2273 -0.1360
 1691W        W 5289   4.845   3.960   5.064 -0.1397 -0.1572  0.0459
 1692W        W 5290  12.367  14.504  15.593  0.1253 -0.0990 -0.0416
 1693W        W 5291   5.338   2.010  15.341 -0.5210  0.0340 -0.1597
 1694W        W 5292   5.557  10.535  14.246 -0.0224  0.0633  0.0963
 1695W        W 5293  15.874  10.144   8.510  0.0821 -0.0848  0.0621
 1696W        W 5294   9.070   2.659   1.717 -0.0327 -0.3078 -0.0620
 1697W        W 5295   8.077   3.999   5.424  0.0722  0.1668  0.0169
 1698W        W 5296   7.315   1.059  15.824  0.1345 -0.0472 -0.0063
 1699W        W 5297   4.570   2.913   5.642 -0.0036  0.0987 -0.0002
 1700W        W 5298   0.993   4.441   3.110 -0.0505  0.0815 -0.1790
 1701W        W 5299  10.156   1.886   4.511 -0.2142 -0.0493  0.2520
 1702W        W 5300   3.285  15.471   3.037 -0.1445 -0.0195 -0.3013
 1703W        W 5301   7.116   2.849   8.088  0.0170 -0.1452  0.0590
 1704W        W 5302   3.070  15.143   5.300 -0.3196 -0.1283  0.0965
 1705W        W 5303  15.689   4.540   7.108  0.0506 -0.1727  0.3384
 1706W        W 5304  11.720   3.217   9.175 -0.2395 -0.0985 -0.1137
 1707W        W 5305   4.397  15.923   5.874  0.1712  0.1423  0.0105
 1708W        W 5306  13.946   5.493   9.216 -0.0253 -0.2117 -0.0737
 1709W        W 5307  16.155  11.568   9.271  0.2513  0.3350 -0.0510
 1710W        W 5308   3.568  12.627   7.483  0.0262  0.1437  0.1246
 1711W        W 5309   4.229   9.669  11.773  0.4005 -0.5222 -0.2395
 1712W        W 5310   3.702   0.035   8.312 -0.3337 -0.0772  0.2557
 1713W        W 5311  13.081  10.610   9.540  0.1075 -0.1738 -0.4203
 1714W        W 5312   3.143  11.797   0.308  0.0404 -0.0019 -0.1501
 1715W        W 5313   3.258  13.484   0.595  0.0182  0.0871 -0.4718
 1716W        W 5314   4.038  13.247   1.050  0.3771 -0.1123  0.0993
 1717W        W 5315   8.037  11.099  11.473  0.3687  0.2438  0.0043
 1718W        W 5316   0.268  11.514   3.576  0.0263 -0.1866 -0.3263
 1719W        W 5317   7.523   6.075   5.753 -0.2733 -0.0682  0.0296
 1720W        W 5318  10.441   8.799  15.036 -0.1458 -0.1498  0.1706
 1721W        W 5319   5.355  10.274  13.068 -0.0927 -0.0721  0.1452
 1722W        W 5320  13.245   8.284  12.760  0.1701 -0.5159  0.2064
 1723W        W 5321   1.410  14.048   2.091 -0.3972 -0.0877 -0.1022
 1724W        W 5322  14.916  15.517  12.357  0.1503  0.0043  0.0207
 1725W        W 5323   9.845   3.240   4.196 -0.2466  0.0989  0.1440
 1726W        W 5324  12.711   7.493  15.818  0.1419  0.2685 -0.3363
 1727W        W 5325  10.660  14.626   6.774  0.0934 -0.0865  0.0558
 1728W        W 5326  11.459  14.812  15.580  0.0698  0.0485 -0.2324
 1729W        W 5327   3.784   9.368  16.313  0.1121 -0.2689 -0.0846
 1730W        W 5328  12.683   3.600  14.937 -0.1665  0.0738 -0.1728
 1731W        W 5329   4.279  12.195   7.485 -0.0783 -0.0583 -0.1562
 1732W        W 5330   5.265  12.213   5.355 -0.0390  0.2108 -0.0181
 1733W        W 5331   6.812   4.623   9.304  0.1336 -0.1496 -0.1285
 1734W        W 5332   9.228   2.426   0.861  0.1695 -0.2785 -0.1054
 1735W        W 5333   3.978  14.392  14.268  0.0053  0.2247 -0.3000
 1736W        W 5334  14.920   1.187  12.533 -0.0811  0.1918 -0.0366
 1737W        W 5335   5.226  15.176   1.767  0.0878 -0.1888 -0.1111
 1738W        W 5336   9.364  12.058  14.402  0.2071  0.0066 -0.3517
 1739W        W 5337  14.909   4.474   9.304 -0.2746  0.0820  0.2558
 1740W        W 5338  15.896   1.001   8.547 -0.0660 -0.0097 -0.0916
 1741W        W 5339  10.232   3.559   4.326 -0.4812  0.1335  0.0134
 1742W        W 5340   3.932   6.118   9.306 -0.2198 -0.1853  0.1710
 1743W        W 5341  13.249  10.051   3.423 -0.0705  0.6612 -0.1297
 1744W        W 5342  12.804  13.926   2.406 -0.0928  0.2519  0.0269
 1745W        W 5343   9.346  15.418   1.621  0.4228 -0.3483  0.0590
 1746W        W 5344   1.506  14.661  14.906  0.1999  0.0936 -0.1641
 1747W        W 5345  12.067   0.583  16.074  0.0231 -0.0481 -0.1711
 1748W        W 5346  10.121   0.990  13.371 -0.2747  0.3001 -0.1489
 1749W        W 5347   3.746   3.860   4.094  0.0653  0.1828  0.4623
 1750W        W 5348  11.050   5.484   2.304  0.1557  0.1953  0.2627
 1751W        W 5349   6.835  12.946  10.361 -0.0939  0.1273  0.0547
 1752W        W 5350   2.364  14.454   7.789 -0.0478  0.0966 -0.1270
 1753W        W 5351  12.851   6.725   3.226  0.2308 -0.0835 -0.0248
 1754W        W 5352   7.071   7.154  14.745 -0.1697  0.2282  0.2090
 1755W        W 5353  13.563  11.134  13.788  0.1286 -0.1888  0.0259
 1756W        W 5354   0.023   0.903  16.158 -0.0544  0.1415 -0.0132
 1757W        W 5355  14.885   5.187   1.520 -0.4843 -0.1503  0.1004
 1758W        W 5356   2.361   6.035  12.642  0.0465  0.2396 -0.4236
 1759W        W 5357   0.296  10.929   9.874 -0.3285 -0.2328 -0.0369
 1760W        W 5358   6.151  13.286   7.341  0.1241  0.1154 -0.4691
 1761W        W 5359  15.391  10.508  11.205 -0.1249 -0.4344 -0.1507
 1762W        W 5360   9.542  12.965   5.984  0.0177  0.0060  0.0113
 1763W        W 5361   9.721   8.261   1.180  0.3983  0.4511  0.0087
 1764W        W 5362   0.848  10.553  14.508 -0.1247  0.0290 -0.0409
 1765W        W 5363  15.339  12.621   2.070  0.1480 -0.3139 -0.0271
 1766W        W 5364   5.129   1.548  12.191  0.0633 -0.1589 -0.0455
 1767W        W 5365   4.686   4.100  12.771  0.3976 -0.2925 -0.0367
 1768W        W 5366   7.585  12.444   5.768 -0.0170  0.0847  0.2558
 1769W        W 5367  11.721   7.844   5.853  0.1811  0.1072  0.1159
 1770W        W 5368  14.648   8.374  14.013  0.1304 -0.3456 -0.1802
 1771W        W 5369  16.142   9.358   1.561  0.1582 -0.3131  0.1983
 1772W        W 5370  12.145  15.024   0.649  0.1938 -0.0503 -0.2797
 1773W        W 5371   7.350  13.660  10.038 -0.0954  0.1712 -0.1888
 1774W        W 5372  11.789  12.285   3.744  0.0551 -0.0397 -0.1524
 1775W        W 5373   0.945  13.513   5.318  0.0109  0.3033 -0.1321
 1776W        W 5374   1.040   0.415   8.378 -0.0171  0.1694 -0.1256
 1777W        W 5375  10.949   6.886   2.291 -0.0158 -0.0303  0.0682
 1778W        W 5376  16.333   2.585  16.059 -0.0052  0.0876 -0.1448
 1779W        W 5377   6.273   2.135  15.755 -0.2259  0.2232 -0.1431
 1780W        W 5378  11.269  13.459   9.912 -0.0376 -0.0098 -0.2925
 1781W        W 5379   0.781   0.511   9.019 -0.2998 -0.1643 -0.0026
 1782W        W 5380   4.522   3.943   0.472  0.0991  0.0363 -0.3583
 1783W        W 5381   0.389   1.123   8.019  0.2887 -0.2203 -0.3318
 1784W        W 5382  12.572   4.326   2.335 -0.0029 -0.0761 -0.1112
 1785W        W 5383   4.721  14.678   8.455 -0.2492  0.0229  0.0006
 1786W        W 5384   2.264   8.611  10.556  0.0034  0.1523  0.3423
 1787W        W 5385   2.768  13.529  13.274  0.1109  0.0020 -0.2565
 1788W        W 5386  14.692  13.582   1.072  0.1900  0.3195  0.1706
 1789W        W 5387   5.990  10.846  10.566  0.0986 -0.3304  0.0937
 1790W        W 5388   2.281   4.268  14.963 -0.0937 -0.1065 -0.0604
 1791W        W 5389   1.832  14.370  12.162  0.0846 -0.2890  0.0393
 1792W        W 5390   3.072  10.535  10.288 -0.0819 -0.2250  0.1371
 1793W        W 5391   4.293   5.751   2.073 -0.1185  0.2260 -0.3845
 1794W        W 5392   8.428  10.266   1.733 -0.0420  0.5289  0.1505
 1795W        W 5393  12.044  12.830   5.779  0.2455  0.2932 -0.0458
 1796W        W 5394  12.949  12.835   6.110 -0.1451 -0.2801  0.0925
 1797W        W 5395  15.299  14.252   5.975 -0.2417  0.1498  0.1554
 1798W        W 5396  10.717   4.023  14.197  0.1348  0.0538  0.1423
 1799W        W 5397  14.613   5.044   7.313 -0.3140  0.0149 -0.1103
 1800W        W 5398  14.428  11.056   0.771  0.1298 -0.1283 -0.2196
 1801W        W 5399   4.249   3.666  13.532  0.2130 -0.4331 -0.1314
 1802W        W 5400   2.346  14.823   1.794  0.1825 -0.1891 -0.1995
 1803W        W 5401  13.800   6.517  11.501  0.0732  0.1874 -0.1021
 1804W        W 5402   4.509   6.553  11.445  0.0375  0.0632 -0.0115
 1805W        W 5403   3.293  13.517  13.305 -0.1038 -0.2015 -0.1844
 1806W        W 5404   6.424   8.814   8.276  0.3079 -0.1315 -0.0907
 1807W        W 5405   7.935   3.029  14.668 -0.1168 -0.0633 -0.2859
 1808W        W 5406  13.637  13.856  11.170  0.0871 -0.0327  0.1143
 1809W        W 5407  12.690   9.299   3.785  0.0579 -0.2371 -0.2559
 1810W        W 5408   3.822  10.962   1.562  0.1245 -0.2771 -0.1788
 1811W        W 5409  13.678   6.429  13.316  0.0084 -0.1833 -0.1109
 1812W        W 5410   7.251  16.321   8.838  0.1566 -0.1009  0.2876
 1813W        W 5411   9.699  13.884   6.144  0.2371 -0.0400  0.1392
 1814W        W 5412   6.560   2.223  13.465 -0.0194 -0.0090 -0.3347
 1815W        W 5413   5.020   4.720  16.207  0.2059 -0.1382 -0.0525
 1816W        W 5414  15.368   2.686   8.633  0.1506 -0.0353 -0.1817
 1817W        W 5415   3.588  15.923   0.864 -0.0001 -0.3053 -0.0679
 1818W        W 5416  10.437   5.518   1.780 -0.0780  0.3419  0.0891
 1819W        W 5417  15.968   6.903   5.005  0.1893 -0.0467  0.0087
 1820W        W 5418   4.837   3.076   8.863 -0.1745 -0.2246 -0.1618
 1821W        W 5419  12.722   8.438   2.594 -0.0012  0.4179  0.0141
 1822W        W 5420   7.401   6.845   2.554  0.2128  0.0700  0.3773
 1823W        W 5421  16.246  14.986   5.348 -0.2756  0.2382  0.1403
 1824W        W 5422  12.262  11.377  11.186 -0.1287 -0.0503 -0.0119
 1825W        W 5423   4.204  11.214  14.783  0.1568 -0.3927  0.1785
 1826W        W 5424   9.316   7.653  11.549  0.0900 -0.0562  0.3023
 1827W        W 5425  11.964   9.691  15.734  0.0324  0.1091 -0.4323
 1828W        W 5426   3.334  10.254   8.503 -0.1197  0.2183 -0.0464
 1829W        W 5427  11.408   5.893   8.206  0.0342 -0.0446  0.2938
 1830W        W 5428  13.442  11.022   0.910 -0.1241  0.1808  0.1188
 1831W        W 5429   6.330   3.447   2.294 -0.0684  0.1563 -0.3010
 1832W        W 5430   4.844  14.582   7.474 -0.2384  0.1670 -0.1317
 1833W        W 5431  10.930   3.679  11.433  0.2195  0.2265  0.1069
 1834W        W 5432   2.505   9.412   6.563 -0.1171 -0.0120 -0.0182
 1835W        W 5433   5.929   6.762  14.184  0.0787  0.0292 -0.0145
 1836W        W 5434  11.419  13.249   9.430  0.1287  0.0303  0.1520
 1837W        W 5435   6.833   9.634   8.526  0.0795  0.3734 -0.0450
 1838W        W 5436   2.609   1.848   8.494  0.1057 -0.0720 -0.0386
 1839W        W 5437  14.018   4.420   3.895 -0.2623 -0.1924  0.0273
 1840W        W 5438   5.973   2.174   6.737  0.2177  0.0103 -0.1494
 1841W        W 5439   9.107  15.060  12.282 -0.2231  0.3762 -0.0839
 1842W        W 5440   8.823   2.419   2.741  0.1047  0.1214  0.1932
 1843W        W 5441  13.572   7.330   6.360  0.0605 -0.0158  0.3128
 1844W        W 5442  10.467   7.022  11.041  0.0420  0.0277 -0.2029
 1845W        W 5443  12.666   5.066  11.969  0.1638 -0.3663 -0.2463
 1846W        W 5444  16.351  13.810   5.255 -0.0796  0.0809 -0.1658
 1847W        W 5445  10.729   4.967  12.241  0.3057 -0.1696 -0.0623
 1848W        W 5446   5.618   3.740   8.265 -0.0126 -0.2936 -0.0986
 1849W        W 5447   5.436  16.109   8.380 -0.0121  0.0451 -0.2255
 1850W        W 5448   7.729   8.403   1.182 -0.0751  0.2759 -0.2257
 1851W        W 5449  13.794   9.391   9.214  0.2282  0.0621  0.1639
 1852W        W 5450   3.418   8.494   9.519  0.0664 -0.2803  0.1056
 1853W        W 5451   8.180   1.702   3.581 -0.0059  0.0370 -0.1596
 1854W        W 5452   5.371   9.793   8.470  0.0041  0.0166 -0.0021
 1855W        W 5453   8.856   3.245  10.887  0.0628  0.2120 -0.2023
 1856W        W 5454   1.403   8.642   0.608  0.2137  0.0877  0.0991
 1857W        W 5455   9.205   0.985   7.656 -0.0580 -0.2063 -0.2972
 1858W        W 5456   4.169   8.926   9.816 -0.1010  0.0164  0.1684
 1859W        W 5457   3.573   0.179  13.414 -0.3017 -0.2023 -0.0414
 1860W        W 5458   4.138   1.080  12.682  0.0853 -0.1644  0.0652
 1861W        W 5459   0.292   6.910   8.841 -0.0120  0.0550  0.1237
 1862W        W 5460   7.855   6.992   2.702  0.0299  0.1442  0.0788
 1863W        W 5461   7.683   6.036   9.902  0.2057  0.0429  0.0582
 1864W        W 5462   9.846  12.945   5.166  0.3532  0.1514 -0.2778
 1865W        W 5463   2.194  15.523   7.652 -0.0538 -0.2256 -0.0110
 1866W        W 5464  13.011   6.582   7.600  0.2205  0.2641 -0.0417
 1867W        W 5465   4.848  11.834   1.460  0.3822  0.1556  0.0017
 1868W        W 5466   7.221   6.758  15.938  0.2018 -0.2013  0.0958
 1869W        W 5467   7.516  14.708   0.368  0.1686  0.1922 -0.1531
 1870W        W 5468   1.019   6.457   9.310 -0.0584  0.2072  0.1751
 1871W        W 5469   5.342   9.661  11.106 -0.1507  0.0489  0.0169
 1872W        W 5470   4.405  12.100   0.395 -0.3168  0.0179  0.1528
 1873W        W 5471   5.080   3.242   9.585  0.3909 -0.3538  0.0341
 1874W        W 5472   0.887  14.057   5.307  0.2998 -0.0389 -0.0348
 1875W        W 5473   3.650   7.367  15.848  0.0492  0.0955  0.3824
 1876W        W 5474  14.521   1.725  15.478  0.0575 -0.1113  0.1300
 1877W        W 5475  13.040  13.769   5.555  0.1257 -0.0174  0.3079
 1878W        W 5476   5.771   3.272   6.973  0.2558 -0.0609 -0.0243
 1879W        W 5477   8.449   9.351   1.872  0.1031 -0.0102 -0.3410
 1880W        W 5478   6.691   2.020   9.117  0.0365  0.3714 -0.0222
 1881W        W 5479   5.665   5.266   7.541  0.2162 -0.0861 -0.0895
 1882W        W 5480  10.405   8.293   1.665 -0.4486 -0.0016  0.2412
 1883W        W 5481   0.587  10.150  12.500 -0.3285  0.1000 -0.2144
 1884W        W 5482   4.620   0.637   4.660  0.1685 -0.3132  0.1437
 1885W        W 5483   1.512   9.903  15.714  0.1213  0.2260  0.0792
 1886W        W 5484   2.270   2.050   0.382  0.6350  0.1296  0.3748
 1887W        W 5485  10.534  13.040   1.196  0.3664  0.0127  0.0850
 1888W        W 5486   4.876   7.106  13.353  0.0634 -0.1974  0.2236
 1889W        W 5487   7.718  13.513   8.695 -0.2332 -0.0337  0.2406
 1890W        W 5488  13.641  12.254  11.014 -0.0765 -0.1167 -0.0106
 1891W        W 5489   5.845   4.025  12.252 -0.3638 -0.0861  0.0264
 1892W        W 5490   3.597   0.741   4.477 -0.4002  0.0800 -0.1065
 1893W        W 5491   6.709   1.757   5.346 -0.0248 -0.0092  0.0941
 1894W        W 5492   4.474  14.260  14.170 -0.0554 -0.3949 -0.0688
 1895W        W 5493   4.908   7.863   9.702  0.2290  0.0416 -0.1404
 1896W        W 5494   4.961   2.337  14.905 -0.0797  0.1203  0.0122
 1897W        W 5495  11.593  11.507  14.364  0.0126 -0.0551 -0.2302
 1898W        W 5496   4.417   6.472  16.334 -0.1089  0.1672 -0.0350
 1899W        W 5497   0.151  12.468  14.492  0.1872 -0.0751 -0.0486
 1900W        W 5498   5.110   0.854  16.255  0.0513 -0.0998 -0.2323
 1901W        W 5499  14.390   3.204   5.792 -0.0874 -0.1321  0.0455
 1902W        W 5500   1.522   2.230  15.002  0.1149 -0.1923  0.1822
 1903W        W 5501  10.317   1.223  15.755 -0.0686 -0.1672  0.0318
 1904W        W 5502  12.088   1.898  11.423  0.3309 -0.1272  0.0278
 1905W        W 5503   3.830   8.676   1.529 -0.1802 -0.2902 -0.0767
 1906W        W 5504   2.925   9.498  12.831  0.0768  0.0529  0.1520
 1907W        W 5505  11.753   3.948   0.304 -0.0128 -0.0330 -0.0787
 1908W        W 5506   6.624   1.766   1.571 -0.0621  0.1841  0.1579
 1909W        W 5507  14.339  11.530  10.589 -0.0335  0.3865  0.3318
 1910W        W 5508   3.297  14.035  16.284 -0.2560 -0.0162  0.1207
 1911W        W 5509   7.180   4.631   5.850  0.0459  0.1408  0.0678
 1912W        W 5510  15.409  11.318   4.313 -0.4032  0.0758  0.2109
 1913W        W 5511  10.244  13.627   4.928 -0.0238 -0.3929 -0.0324
 1914W        W 5512   6.908  11.824   3.762  0.1477 -0.0985 -0.1495
 1915W        W 5513   7.009  13.756   7.136  0.2008 -0.1979  0.1271
 1916W        W 5514   8.319   1.522  13.261 -0.2621 -0.0221 -0.0632
 1917W        W 5515   1.436   6.546   3.343  0.2590 -0.0696  0.1185
 1918W        W 5516   3.043   4.695   5.123  0.0370 -0.1340 -0.0219
 1919W        W 5517  10.317   4.635   2.020 -0.0878 -0.0096 -0.2088
 1920W        W 5518  15.839   7.078   6.354  0.3103 -0.0027  0.0817
 1921W        W 5519   5.342   2.603   6.608 -0.2238 -0.0925 -0.3381
 1922W        W 5520   3.946  12.224   6.180  0.1090  0.0392  0.0100
 1923W        W 5521   8.440   0.189   1.276  0.2961 -0.2118  0.0002
 1924W        W 5522   0.815   6.958  10.382  0.2578 -0.2094  0.0569
 1925W        W 5523   0.099  14.188   9.575 -0.2194  0.1155  0.0886
 1926W        W 5524   7.801   5.565  15.327 -0.1384 -0.0882 -0.0393
 1927W        W 5525   7.182  10.298   2.653  0.0802  0.1206  0.2617
 1928W        W 5526   6.309  12.457  15.582 -0.2737  0.2299  0.0762
 1929W        W 5527   8.392   3.109  10.114 -0.4281  0.2090 -0.0421
 1930W        W 5528   8.549  15.797  10.418 -0.0087  0.0762 -0.0586
 1931W        W 5529  15.557   6.430  11.637  0.0379 -0.4711  0.0718
 1932W        W 5530  13.067  14.600   4.964 -0.2191  0.0419  0.0622
 1933W        W 5531   3.731   0.220   4.320 -0.3299  0.2295 -0.3655
 1934W        W 5532  14.031   0.205  11.609 -0.0529 -0.3680  0.1006
 1935W        W 5533   1.237  12.137   9.605  0.0816 -0.0427 -0.2169
 1936W        W 5534   2.894   8.047   7.794 -0.0886  0.0878 -0.1488
 1937W        W 5535   7.366   0.032  11.059 -0.0269  0.1514 -0.0899
 1938W        W 5536   1.931   2.434  12.185  0.1718  0.2078 -0.1497
 1939W        W 5537  11.694  11.634  15.672  0.2768 -0.0463 -0.2285
 1940W        W 5538   1.215   3.284  14.638 -0.1575 -0.0059 -0.2204
 1941W        W 5539   3.004  12.616   5.237  0.0988 -0.0145 -0.0392
 1942W        W 5540   4.352   7.351  10.412  0.0353  0.1639  0.1208
 1943W        W 5541   1.250  14.501  10.254 -0.0000  0.1132 -0.1100
 1944W        W 5542   4.240   0.769  11.314 -0.1526  0.1066  0.0603
 1945W        W 5543   6.057   5.908  10.202  0.0640 -0.2257  0.0403
 1946W        W 5544   7.355   0.956   2.826 -0.1572 -0.0776 -0.1231
 1947W        W 5545   5.244   5.726   7.766  0.0933 -0.0582 -0.1217
 1948W        W 5546   1.305   4.667  14.042 -0.0017  0.1562  0.0581
 1949W        W 5547  10.644   9.695   3.550 -0.0411  0.1853 -0.0883
 1950W        W 5548   0.423   0.520   6.729 -0.1472 -0.2447  0.1181
 1951W        W 5549   1.321   2.078  14.084  0.0737 -0.1594 -0.1643
 1952W        W 5550   0.656  10.785   1.962 -0.0587 -0.0857 -0.1601
 1953W        W 5551   1.588   4.609   9.337 -0.0244 -0.1806  0.0296
 1954W        W 5552   4.406  12.094   1.202  0.1921  0.2261  0.0418
 1955W        W 5553  13.029  11.931  13.878 -0.0443  0.0329 -0.0939
 1956W        W 5554   7.394   6.647  12.824  0.1255  0.1086 -0.1889
 1957W        W 5555   8.431   4.615   6.093 -0.1492 -0.0831  0.1253
 1958W        W 5556   5.734   4.515   9.529  0.1383  0.0046  0.0827
 1959W        W 5557   1.623   6.530   3.810  0.0264 -0.2612 -0.0379
 1960W        W 5558  11.614   2.431  13.822 -0.1303  0.1752  0.1657
 1961W        W 5559  12.791   1.914  15.024  0.1323 -0.0684  0.0835
 1962W        W 5560  13.984   0.997   3.847 -0.0998 -0.0185 -0.2765
 1963W        W 5561   5.889  16.362   3.020 -0.1359 -0.0145 -0.0176
 1964W        W 5562  14.862  12.055  16.176 -0.4447  0.3774 -0.0436
 1965W        W 5563   5.021   5.068   2.601  0.3844  0.0418  0.3729
 1966W        W 5564  12.329   2.986   1.741 -0.1312  0.1462  0.0041
 1967W        W 5565  15.359   3.726   8.221  0.1809 -0.1643  0.1621
 1968W        W 5566  12.644   3.167  11.958 -0.5136 -0.0977  0.0977
 1969W        W 5567   3.613  14.648   4.895  0.1186  0.1121  0.0233
 1970W        W 5568   5.825  14.260   1.999  0.1602 -0.0181  0.1655
 1971W        W 5569  12.465  14.750  12.751  0.1974  0.0459 -0.0503
 1972W        W 5570  11.067  14.893  10.913  0.0194  0.1314  0.2597
 1973W        W 5571   1.517   4.409   8.148  0.0295 -0.1152  0.0259
 1974W        W 5572   5.323   8.196   9.516  0.2276 -0.0048 -0.3441
 1975W        W 5573   5.928  12.944   5.407 -0.1138 -0.2167  0.1007
 1976W        W 5574   0.083   8.968   5.736  0.0105 -0.1175  0.1048
 1977W        W 5575   4.366   5.898  13.844 -0.0118  0.2424 -0.0884
 1978W        W 5576   1.145  16.316   4.916  0.0616 -0.0266 -0.1806
 1979W        W 5577   4.841   1.136   0.339  0.0595  0.1908  0.0728
 1980W        W 5578   3.905   7.477   8.664  0.1018 -0.0184  0.0165
 1981W        W 5579  13.646  13.198   1.744 -0.2701 -0.3433  0.0416
 1982W        W 5580   8.749  14.730  10.955  0.0351  0.0476  0.0312
 1983W        W 5581   4.134  14.311   7.418  0.2613  0.1004  0.1985
 1984W        W 5582   4.651   9.051  15.426 -0.0496 -0.2984  0.1506
 1985W        W 5583   3.288  12.397   1.560 -0.1391 -0.2178  0.2143
 1986W        W 5584   8.177   3.038   0.258 -0.2241  0.1244 -0.2280
 1987W        W 5585  14.863   4.755  12.923 -0.0719  0.2405 -0.1003
 1988W        W 5586   9.769  16.187   8.969  0.1730  0.3237  0.0321
 1989W        W 5587   2.432  10.862   6.683  0.0180  0.0336  0.1754
 1990W        W 5588   6.485   0.521   4.882 -0.0104 -0.0067  0.0773
 1991W        W 5589   6.159   1.353  14.976  0.0906 -0.0733 -0.1442
 1992W        W 5590  11.016   5.032  11.000  0.1026 -0.1002  0.1115
 1993W        W 5591   3.893   3.130   5.245  0.0659  0.0738  0.1141
 1994W        W 5592   0.743   1.627   9.135  0.0908  0.3866  0.1151
 1995W        W 5593  16.369  13.189   7.309 -0.1642 -0.1368 -0.2100
 1996W        W 5594  13.563   5.554  11.843  0.1275 -0.2115 -0.1590
 1997W        W 5595   1.049  13.625   9.013 -0.0519  0.1412 -0.3732
 1998W        W 5596   7.537  10.577   6.002  0.0217 -0.0699 -0.2321
 1999W        W 5597  12.428  10.423   9.962 -0.1645  0.1870 -0.1075
 2000W        W 5598   9.034  14.842   0.898 -0.1829 -0.0192 -0.1694
 2001W        W 5599   1.337   4.234  12.040 -0.0547  0.1148  0.0564
 2002W        W 5600   3.768   2.254  10.892  0.1466 -0.1708  0.1022
 2003W        W 5601  13.926  10.544  12.723 -0.0563 -0.2263 -0.0996
 2004W        W 5602  16.079  10.540   8.722  0.1007  0.2888 -0.1185
 2005W        W 5603   9.448  12.247  15.523  0.1122  0.1242 -0.0674
 2006W        W 5604   1.477   7.986   0.848  0.1178 -0.1530  0.2260
 2007W        W 5605   2.755   6.806   4.816  0.3250  0.0376 -0.2808
 2008W        W 5606   4.027  15.077   6.684 -0.1693  0.2418  0.0835
 2009W        W 5607   8.351  13.044   1.011 -0.1123 -0.0750  0.4112
 2010W        W 5608   0.033   4.669  16.235 -0.0787  0.0003  0.1582
 2011W        W 5609   1.004  16.295   0.283  0.2768 -0.1399 -0.1401
 2012W        W 5610   9.968   7.911   8.158 -0.2191  0.1508  0.3339
 2013W        W 5611   3.478  12.788   5.166  0.0910  0.0077 -0.0340
 2014W        W 5612   4.787  12.855   3.170  0.1726  0.2785  0.0575
 2015W        W 5613   8.191  12.059  14.422  0.1065  0.2421 -0.1138
 2016W        W 5614   4.821   2.478  13.793 -0.1651  0.1085  0.0900
 2017W        W 5615   8.306   2.042   8.532  0.1417 -0.1853  0.3129
 2018W        W 5616  16.131   5.342  15.226 -0.1189 -0.0161 -0.3204
 2019W        W 5617  15.786   3.010   4.517 -0.1312  0.1739 -0.2045
 2020W        W 5618   1.021   3.301  13.845  0.1115 -0.1748  0.1707
 2021W        W 5619   2.018   3.165  14.777  0.0138  0.2607 -0.1336
 2022W        W 5620   9.628   2.603  12.609 -0.2892 -0.1892 -0.3292
 2023W        W 5621   6.833  14.888  12.560 -0.0477 -0.0031  0.0379
 2024W        W 5622   4.225   2.106  12.600 -0.0508  0.1099 -0.0764
 2025W        W 5623  11.045  13.618  13.295  0.2809  0.0823  0.1226
 2026W        W 5624   3.611   1.077   0.207  0.0697  0.2169  0.0721
 2027W        W 5625   5.432   8.058   8.294 -0.0950 -0.0234  0.1096
 2028W        W 5626   6.928   4.246  15.257  0.3232 -0.0041  0.4316
 2029W        W 5627   0.167   0.111   7.587  0.0706  0.1126  0.1941
 2030W        W 5628   3.095  12.313   1.082  0.2610 -0.3859 -0.3008
 2031W        W 5629   0.766   3.999   6.546  0.0664 -0.1836  0.1826
 2032W        W 5630   9.621  14.299  11.762 -0.0406  0.0432  0.0177
 2033W        W 5631   7.153   0.033  15.644  0.1297  0.2267  0.3540
 2034W        W 5632   4.814   6.972   0.534 -0.1903 -0.2274  0.1800
 2035W        W 5633   1.802   7.560  11.010 -0.4594  0.1379  0.3561
 2036W        W 5634  12.171   2.276  11.926 -0.3959  0.1181  0.2841
 2037W        W 5635   6.339  12.733   9.160  0.0035  0.2231 -0.0926
 2038W        W 5636   6.525  12.713   4.656 -0.0526  0.1025 -0.1396
 2039W        W 5637   1.823   5.091  14.098  0.0093  0.2954 -0.1873
 2040W        W 5638  11.317  15.062  10.507 -0.0572 -0.0792  0.0618
 2041W        W 5639   1.259   8.877   2.656 -0.0250  0.0676 -0.1597
 2042W        W 5640  14.626   2.312   2.601  0.3136 -0.0440  0.2132
 2043W        W 5641  16.315  10.309   3.667 -0.2280 -0.3850  0.0213
 2044W        W 5642   8.858  15.898  12.629 -0.2160  0.1785 -0.0589
 2045W        W 5643   4.267   2.328  10.759  0.1251  0.3295  0.0931
 2046W        W 5644   8.926  11.604   3.567  0.0617  0.0658  0.4205
 2047W        W 5645   6.514   5.617   6.737  0.2417  0.1530 -0.0781
 2048W        W 5646   1.217   8.068  13.695  0.2279 -0.2937 -0.0278
 2049W        W 5647   7.097   3.369  12.921  0.0893 -0.0204 -0.0528
 2050W        W 5648   5.724  11.693  13.378  0.1354  0.0397  0.3122
 2051W        W 5649   0.690   8.222   4.020 -0.4447 -0.1263  0.0482
 2052W        W 5650   8.177   6.015   8.218  0.2501  0.1372 -0.2719
 2053W        W 5651  13.517   4.852   1.668 -0.0317  0.2198  0.1923
 2054W        W 5652   4.102   1.976   7.081 -0.1769 -0.2154 -0.0692
 2055W        W 5653   5.566   2.097   7.230  0.0349  0.0929  0.1418
 2056W        W 5654  12.559  10.701  10.849 -0.3974  0.0725 -0.2375
 2057W        W 5655  15.652  15.999   7.026  0.0974 -0.3010 -0.1636
 2058W        W 5656   4.918   2.541   7.371  0.1416 -0.0811 -0.0349
 2059W        W 5657   9.912   5.287   4.624  0.3020  0.0046 -0.1530
 2060W        W 5658  16.151   1.315  13.086  0.1351  0.0192 -0.0317
 2061W        W 5659   6.278  11.085   3.858  0.2240 -0.0535 -0.3403
 2062W        W 5660   7.289   2.166  10.433 -0.0915 -0.4543  0.0824
 2063W        W 5661  15.713  13.038  12.465 -0.1151 -0.1567 -0.1705
 2064W        W 5662  10.253   1.354   5.768 -0.1610  0.0361  0.0985
 2065W        W 5663  10.065   2.938  15.410 -0.1215 -0.0347 -0.1685
 2066W        W 5664   5.758   2.556  11.541 -0.0111  0.1021 -0.2015
 2067W        W 5665  10.327  11.165   6.407  0.2175 -0.3844  0.1260
 2068W        W 5666   4.957   7.945  13.536  0.0002  0.0406 -0.2013
 2069W        W 5667   0.981   5.155  14.206 -0.1492  0.2170  0.1335
 2070W        W 5668   7.561   0.279   9.708 -0.3642  0.3013  0.2133
 2071W        W 5669   7.800   8.842  11.497 -0.0030  0.1391  0.2415
 2072W        W 5670   7.158   2.081   9.939  0.0507  0.2228 -0.3168
 2073W        W 5671   1.918   7.471   9.357  0.3493 -0.1912  0.3633
 2074W        W 5672   8.012  11.025   8.544  0.0281  0.4757 -0.1005
 2075W        W 5673   6.603  13.189  11.708  0.1505 -0.1406  0.3207
 2076W        W 5674   4.639   9.362  12.697 -0.1882  0.1232  0.1600
 2077W        W 5675   9.023   9.550   1.969  0.2509  0.2327 -0.1992
 2078W        W 5676   1.433   9.123   1.819 -0.0832  0.1460  0.2729
 2079W        W 5677   8.084   7.671   5.700  0.0773 -0.1373 -0.1664
 2080W        W 5678  14.391  14.671  15.057  0.1988 -0.0219  0.2139
 2081W        W 5679  15.740   2.109   4.161  0.2026 -0.1581 -0.2362
 2082W        W 5680   3.846   4.607  12.894 -0.0724  0.0959 -0.3507
 2083W        W 5681   5.576  15.632   8.441  0.0895 -0.2395 -0.1782
 2084W        W 5682   2.169  14.708   0.255 -0.2182  0.5040 -0.0132
 2085W        W 5683   8.643   0.130  11.348 -0.0474 -0.0392 -0.0675
 2086W        W 5684  11.439   1.856   3.700 -0.2686 -0.0997 -0.1843
 2087W        W 5685   3.983  10.227   6.340  0.1656  0.2868 -0.0675
 2088W        W 5686   3.910  10.897  12.376  0.0649 -0.0318 -0.0324
 2089W        W 5687   3.951  14.332  10.701 -0.3235 -0.1336 -0.1286
 2090W        W 5688   8.084  14.129  13.792 -0.6086  0.0593 -0.1962
 2091W        W 5689  10.883   1.300  14.801 -0.1755 -0.1403 -0.0445
 2092W        W 5690   2.680  15.760  15.349 -0.0324  0.1080  0.1813
 2093W        W 5691   4.398  15.702  16.246  0.2308  0.0314 -0.1334
 2094W        W 5692  12.333   0.983   8.263  0.0460 -0.2174  0.0022
 2095W        W 5693   1.414  10.673   1.849 -0.1771 -0.1670 -0.1498
 2096W        W 5694   9.795   2.482   3.749 -0.1623 -0.1595  0.0331
 2097W        W 5695  12.888  11.802   7.173 -0.0138  0.2784  0.0896
 2098W        W 5696   3.638   5.779  10.140  0.1733 -0.2965  0.4127
 2099W        W 5697   4.292  13.997   7.950  0.0326  0.0085  0.0436
 2100W        W 5698   6.935  12.594   3.825  0.3449  0.1955 -0.1701
 2101W        W 5699   8.621  16.388  15.245  0.3156  0.2424  0.1132
 2102W        W 5700  13.538  12.434  15.112  0.0886 -0.1825  0.0726
 2103W        W 5701   3.915   7.945   9.499  0.2354 -0.1900 -0.4679
 2104W        W 5702   7.674   5.748  14.461  0.1213 -0.0208  0.0656
 2105W        W 5703   6.059  14.180  10.913  0.0081  0.2743 -0.1867
 2106W        W 5704   2.701  11.298   9.913 -0.5724  0.2726 -0.0795
 2107W        W 5705   6.713   4.809   3.497 -0.0051  0.1422 -0.1263
 2108W        W 5706   3.326  15.624   0.225  0.0117  0.1557  0.0590
 2109W        W 5707   1.784  15.112  13.781 -0.1866  0.2570 -0.1821
 2110W        W 5708   5.582   4.050   9.235  0.0004  0.0279  0.2101
 2111W        W 5709   9.232  14.478   1.199  0.0617 -0.0186  0.1698
 2112W        W 5710   0.548   7.072   5.723 -0.0738  0.1154  0.1516
 2113W        W 5711   5.274  15.013   8.031 -0.3427  0.1633 -0.3886
 2114W        W 5712   5.242   1.942   8.999  0.1878  0.1197 -0.6691
 2115W        W 5713   8.209   2.470   8.882 -0.1518 -0.1749 -0.0024
 2116W        W 5714  11.029  11.963  12.825  0.0878  0.3180  0.1228
 2117W        W 5715   5.909   0.400   8.887 -0.0163 -0.1378 -0.3302
 2118W        W 5716   1.139  10.469  10.956  0.2504 -0.1995 -0.0662
 2119W        W 5717   4.543   7.113   5.640  0.2651  0.0851  0.0527
 2120W        W 5718  13.167   4.313   4.924  0.2047  0.0992  0.2252
 2121W        W 5719   6.336   7.666  14.182  0.1277 -0.0878  0.1874
 2122W        W 5720   7.528  10.848  16.268 -0.1042 -0.0300  0.0109
 2123W        W 5721   3.721   6.557   6.368  0.0703 -0.0098 -0.0808
 2124W        W 5722  15.768   5.262  10.338 -0.1782  0.1312 -0.2088
 2125W        W 5723   9.428  13.072   7.786 -0.0940 -0.2651  0.1119
 2126W        W 5724   8.544   3.298   9.215  0.2523 -0.1107  0.2292
 2127W        W 5725  13.914   5.004   3.698 -0.2809 -0.1898 -0.0034
 2128W        W 5726  13.053  11.640  10.877 -0.0297 -0.0371 -0.1085
 2129W        W 5727   4.905   0.681  15.292 -0.0485 -0.1873  0.1456
 2130W        W 5728   3.071   3.402  14.059  0.1751  0.1741  0.1365
 2131W        W 5729   0.594  14.104  10.239  0.0347  0.0022 -0.2026
 2132W        W 5730   2.026   5.083   3.957 -0.4958 -0.0954 -0.0521
 2133W        W 5731  14.236   7.500   4.201 -0.0761 -0.0789  0.2225
 2134W        W 5732   4.752  14.855   0.283 -0.2741 -0.1037 -0.0840
 2135W        W 5733   6.334   4.513   2.795  0.0043 -0.0530  0.1315
 2136W        W 5734  12.562   6.039   7.006 -0.0332 -0.3251 -0.0679
 2137W        W 5735  13.429   9.354  11.150  0.1182  0.0679  0.1575
 2138W        W 5736   3.404  15.366   7.215 -0.5427  0.1873 -0.2002
 2139W        W 5737   7.196   1.950   3.269 -0.0772  0.0963  0.1613
 2140W        W 5738   3.057  12.730  13.744 -0.0345 -0.3724  0.0317
 2141W        W 5739  12.484   2.645   2.514  0.0279 -0.3100  0.0813
 2142W        W 5740  10.149  13.085   0.026 -0.3630 -0.0506  0.1328
 2143W        W 5741  11.881   5.220   9.620  0.3004 -0.2710  0.0574
 2144W        W 5742   2.416  10.029  14.492 -0.0879  0.2216 -0.1314
 2145W        W 5743   7.363   5.657   3.458 -0.1214  0.1600  0.2260
 2146W        W 5744   8.555   0.584  10.413 -0.2336  0.2334 -0.1063
 2147W        W 5745  15.783  12.418   7.750 -0.1737  0.3038  0.1230
 2148W        W 5746   5.087   6.441   6.078 -0.0104  0.0343  0.2481
 2149W        W 5747   7.815   5.067  13.494 -0.0837  0.0026 -0.3482
 2150W        W 5748   8.340   1.491   7.456 -0.0615  0.1148  0.1251
 2151W        W 5749   8.334   2.320   2.635 -0.3383 -0.1664  0.0883
 2152W        W 5750   1.353  11.179   4.136 -0.0225 -0.1690  0.0142
 2153W        W 5751  13.468  13.578   5.890 -0.1884 -0.0405 -0.3944
 2154W        W 5752   9.486   0.144  14.645  0.1337  0.1324 -0.0111
 2155W        W 5753   4.862   6.257   2.378 -0.2546 -0.1485 -0.3046
 2156W        W 5754   0.655  10.326  11.032 -0.0463  0.0418 -0.0582
 2157W        W 5755   6.327  14.490   2.277 -0.0542  0.0514  0.1121
 2158W        W 5756  15.884  14.993  16.123  0.1288 -0.1050 -0.0671
 2159W        W 5757  15.375   2.555  16.259  0.0340  0.0763 -0.0759
 2160W        W 5758   5.336   6.985   1.920 -0.1278  0.1857 -0.4334
 2161W        W 5759   1.537   5.362  14.702  0.2082  0.0657 -0.0241
 2162W        W 5760   1.869  12.928   9.133 -0.2366  0.2048 -0.1505
 2163W        W 5761  13.398   7.140   4.633 -0.1070 -0.2675 -0.2215
 2164W        W 5762   9.801   5.956   3.130  0.1075 -0.0031  0.1587
 2165W        W 5763   2.667   9.357   4.912  0.3974  0.3459 -0.1421
 2166W        W 5764   6.667  10.494  11.327  0.3420  0.2109  0.1185
 2167W        W 5765  11.510  13.186   0.632 -0.0226 -0.2793  0.2634
 2168W        W 5766  11.287  15.134  12.218 -0.0656 -0.0258  0.0460
 2169W        W 5767   3.938  12.162  12.991  0.2164 -0.0877 -0.1180
 2170W        W 5768   4.308   6.181   9.671 -0.1994 -0.3523  0.0261
 2171W        W 5769  14.217   6.191   1.093  0.0992 -0.2250  0.0510
 2172W        W 5770  12.391   5.859   9.272  0.0048 -0.3699 -0.0454
 2173W        W 5771   7.106   5.718   4.411 -0.0919  0.0998  0.0111
 2174W        W 5772   5.792  10.720  11.867  0.0054  0.0377  0.1217
 2175W        W 5773   7.602   9.981   2.720  0.0832  0.0672  0.2340
 2176W        W 5774   1.015   2.415   4.246 -0.1077  0.1906 -0.1573
 2177W        W 5775   0.659   7.174  14.264  0.1124  0.2039 -0.0963
 2178W        W 5776   5.627  13.275   6.722  0.1161  0.0759 -0.1751
 2179W        W 5777   7.729  14.713  11.460  0.1776 -0.3377 -0.1125
 2180W        W 5778   7.673  14.034  10.313  0.1631  0.0564 -0.3091
 2181W        W 5779   5.821  10.542  12.998 -0.2571  0.1270 -0.1323
 2182W        W 5780  11.208   6.411   9.264 -0.0899 -0.0395  0.2388
 2183W        W 5781  12.565   7.202  12.346 -0.0712 -0.1115  0.3044
 2184W        W 5782  16.087  16.358   6.815  0.2253  0.0304 -0.2749
 2185W        W 5783   0.490   7.383  12.883  0.0648  0.0604 -0.0536
 2186W        W 5784  13.787   5.325  14.309 -0.2009 -0.3199 -0.0567
 2187W        W 5785   4.817  12.368   9.194  0.0491  0.2263  0.1094
 2188W        W 5786   2.108  11.392   0.409 -0.0204  0.2294  0.1197
 2189W        W 5787  16.207  12.196   4.981 -0.1241 -0.2636 -0.2449
 2190W        W 5788   2.252   5.533   2.683 -0.0042 -0.2948  0.2578
 2191W        W 5789  10.392  14.912  16.385  0.1179 -0.1628 -0.0875
 2192W        W 5790   6.959  13.115   5.446  0.1178 -0.2493 -0.2677
 2193W        W 5791  15.759   3.961  16.358 -0.2074 -0.1346 -0.2420
 2194W        W 5792   2.487   9.895  11.341  0.2575  0.0516 -0.1657
 2195W        W 5793  13.360   1.853   0.677  0.3011  0.1082  0.0395
 2196W        W 5794  14.701   1.195  10.632 -0.2810  0.3004  0.3274
 2197W        W 5795   8.342  15.640  13.101  0.0856  0.0679 -0.0233
 2198W        W 5796   4.741   9.636   9.568 -0.3188 -0.0316 -0.3738
 2199W        W 5797   4.555   9.735   8.604 -0.0977  0.3164 -0.2642
 2200W        W 5798   0.784   5.243   4.168  0.0986  0.1733  0.2989
 2201W        W 5799   4.747  15.019   1.194  0.0085  0.0062 -0.0098
 2202W        W 5800  12.655   3.077  10.714  0.0796  0.3319  0.0180
 2203W        W 5801   4.982  15.309   9.966  0.3295  0.0664  0.0248
 2204W        W 5802   1.925  11.217   8.874  0.0951  0.1259  0.0075
 2205W        W 5803   5.315   1.033   0.343  0.1738  0.3841 -0.1838
 2206W        W 5804   7.321   9.300  14.949  0.0097  0.0094 -0.1094
 2207W        W 5805   7.570   0.344   2.937 -0.2911  0.3153  0.0276
 2208W        W 5806   1.650   3.845  12.546  0.0536  0.0003 -0.0736
 2209W        W 5807   3.696   8.035   1.270  0.0540 -0.0676 -0.1131
 2210W        W 5808   6.330   4.759  15.846  0.3164  0.2470  0.3207
 2211W        W 5809  13.835   5.492   7.123  0.2063  0.1723  0.1261
 2212W        W 5810  13.627  16.184   8.438  0.1902  0.1087 -0.1663
 2213W        W 5811   8.360  10.936   8.187  0.1892  0.0273  0.4155
 2214W        W 5812   8.390   5.679  12.823  0.0259 -0.0024  0.1272
 2215W        W 5813  13.089  14.008  15.330 -0.0269  0.1163 -0.1995
 2216W        W 5814  11.192   5.810   9.363  0.1723  0.0312  0.2689
 2217W        W 5815   8.292   3.279   8.191 -0.3599  0.2209 -0.1193
 2218W        W 5816  15.371  14.020  13.986 -0.4014 -0.0375  0.1244
 2219W        W 5817   7.421   0.103  12.972  0.1665  0.0880  0.0235
 2220W        W 5818   4.711  15.342  15.974  0.0839  0.1317  0.0955
 2221W        W 5819   7.768   0.114   5.877  0.3101  0.1024  0.0577
 2222W        W 5820   3.620   7.439   4.475  0.0679  0.0357  0.0336
 2223W        W 5821  11.918   4.695  14.277 -0.0597 -0.2520 -0.0288
 2224W        W 5822  11.598  14.062   5.493  0.2514  0.1848 -0.2888
 2225W        W 5823  13.276  13.601   4.659 -0.1599 -0.0463  0.3420
 2226W        W 5824  14.591  15.528   0.643 -0.1086 -0.0094  0.2674
 2227W        W 5825  16.056  10.994   8.498  0.1354  0.2411  0.2150
 2228W        W 5826   7.169   6.347  12.343  0.1481 -0.2079  0.0794
 2229W        W 5827   7.168   7.608  14.576 -0.3737  0.0932  0.1151
 2230W        W 5828  11.042  14.000  11.501 -0.0071  0.4865 -0.1975
 2231W        W 5829   5.967  15.471  15.413 -0.0709  0.0371 -0.1150
 2232W        W 5830  12.732  13.390   3.464 -0.2654  0.0448  0.0081
 2233W        W 5831  15.258   4.337   6.145 -0.2508  0.2292 -0.0209
 2234W        W 5832   8.689   9.570   2.343 -0.0130  0.1494 -0.3151
 2235W        W 5833  16.023   2.662  10.672 -0.5051  0.1579 -0.2183
 2236W        W 5834   7.867  12.440  14.221 -0.0779 -0.2497 -0.0798
 2237W        W 5835   3.168   8.448   6.912 -0.0664  0.1371 -0.1500
 2238W        W 5836  11.752   8.265   2.582  0.4925  0.1581 -0.1433
 2239W        W 5837  12.623   1.810  12.241  0.2613 -0.1563 -0.0403
 2240W        W 5838   1.036   1.518  14.351  0.1035  0.0252  0.0145
 2241W        W 5839   7.726   3.906   3.575  0.1441 -0.0646  0.0267
 2242W        W 5840   6.182   8.594  12.032 -0.1346 -0.1675 -0.0360
 2243W        W 5841   2.762   7.980   6.626  0.2096 -0.1341 -0.0679
 2244W        W 5842   6.409   0.923  10.638  0.0996 -0.0731  0.4368
 2245W        W 5843   1.095  12.031   2.797 -0.0878  0.4447 -0.0606
 2246W        W 5844   6.700  10.505   4.625  0.0453 -0.1375  0.3144
 2247W        W 5845   7.429   1.587  10.395 -0.1163  0.0756 -0.0288
 2248W        W 5846   4.905  12.610   0.786 -0.1204  0.0875  0.0111
 2249W        W 5847   8.525  11.139   6.969 -0.1170 -0.0535 -0.2688
 2250W        W 5848   0.703   0.716   6.348  0.0165  0.0832  0.0773
 2251W        W 5849  12.598  14.328   4.675  0.4620 -0.0769 -0.0663
 2252W        W 5850   1.954  12.045   3.027 -0.4221  0.2484  0.1246
 2253W        W 5851  15.240   4.646   9.745  0.1625 -0.4303 -0.1823
 2254W        W 5852   1.954   5.385   2.296  0.0080 -0.0635 -0.0082
 2255W        W 5853   2.009   3.036  13.750 -0.0580  0.3695  0.1150
 2256W        W 5854   9.047  12.768   0.201 -0.0447  0.2656  0.1539
 2257W        W 5855   8.736  14.759   1.506  0.0457 -0.0896 -0.0359
 2258W        W 5856   6.779   2.725   8.410  0.0402 -0.0206 -0.1876
 2259W        W 5857  14.944   0.758   8.869 -0.1195 -0.0524  0.1739
 2260W        W 5858   9.007  16.392   3.271  0.0887  0.0824 -0.2873
 2261W        W 5859  15.218   8.833   6.910 -0.2477 -0.2512  0.0903
 2262W        W 5860  13.720   3.088   3.190  0.2855 -0.1025  0.1129
 2263W        W 5861   3.179   1.197  15.645  0.2022 -0.1730 -0.2306
 2264W        W 5862   3.708   8.785   9.839  0.2506 -0.0816 -0.0656
 2265W        W 5863  13.173  13.754   3.257 -0.0185  0.0256  0.1289
 2266W        W 5864   4.582   8.524   8.732  0.0369  0.3359  0.1461
 2267W        W 5865   6.444   4.750  12.494  0.1904 -0.0856 -0.3839
 2268W        W 5866   2.806  16.111  13.213 -0.0278  0.1234  0.0286
 2269W        W 5867   0.936   7.487   0.366 -0.0745 -0.0713 -0.2903
 2270W        W 5868   0.841   1.612   5.859  0.0837  0.3651 -0.0565
 2271W        W 5869  16.115   4.021   8.870 -0.1074  0.1837 -0.0914
 2272W        W 5870   6.375   8.277   0.434  0.0512  0.1672  0.2537
 2273W        W 5871  10.393   7.003  13.469  0.0221  0.2708  0.1144
 2274W        W 5872   3.467   1.338   6.709 -0.2163  0.0105  0.0997
 2275W        W 5873   2.004  13.101  10.889  0.1015 -0.0788  0.0929
 2276W        W 5874   8.034   5.078  15.249 -0.2073 -0.0995  0.0710
 2277W        W 5875  12.336   4.929  10.584 -0.0211 -0.0802  0.1448
 2278W        W 5876   6.051   3.134  16.169 -0.1136  0.1099 -0.3187
 2279W        W 5877   8.271  13.730   0.128  0.3208 -0.1173  0.1240
 2280W        W 5878  15.115   5.827   0.692  0.0990  0.1914  0.1874
 2281W        W 5879   8.766  14.952   8.216  0.0658 -0.0605 -0.0690
 2282W        W 5880   2.174   2.528   0.258 -0.0133 -0.1149 -0.1126
 2283W        W 5881   4.748  13.012   8.281 -0.0927 -0.0363 -0.1701
 2284W        W 5882   2.140   6.467  14.579 -0.3390 -0.0144 -0.3328
 2285W        W 5883   5.270  15.205   9.033 -0.0382  0.1994  0.0387
 2286W        W 5884   3.559  16.317  11.941  0.0393  0.1317 -0.1309
 2287W        W 5885   6.239   9.296  13.655 -0.2046 -0.0669 -0.1692
 2288W        W 5886   4.862   3.764  16.086 -0.2032  0.1218  0.3751
 2289W        W 5887  16.280  13.151  11.746  0.1700  0.0239 -0.2591
 2290W        W 5888   2.319   3.490  14.494 -0.2809  0.1147  0.3210
 2291W        W 5889  11.447  15.310   4.965 -0.0839  0.1683 -0.4522
 2292W        W 5890  10.871   1.615   9.098 -0.1505 -0.0067 -0.2014
 2293W        W 5891   0.291  12.152   9.647  0.2998  0.2487  0.0449
 2294W        W 5892   8.616   2.433  11.660  0.1611  0.1605 -0.1398
 2295W        W 5893  14.967  10.732  10.313 -0.2349 -0.1442  0.0605
 2296W        W 5894   3.448  10.491   4.694  0.3243 -0.0652 -0.2672
 2297W        W 5895   0.429  14.789  13.183  0.1397 -0.1518 -0.0864
 2298W        W 5896  12.463  12.322   4.285 -0.2094 -0.0460 -0.3031
 2299W        W 5897  16.215  14.397   7.049 -0.1081  0.0844 -0.1297
 2300W        W 5898   3.727  12.125   1.687  0.0467  0.2129 -0.1778
 2301W        W 5899   1.920   3.122  15.803  0.0620  0.0136  0.0357
 2302W        W 5900  15.078   0.898  12.918 -0.2307  0.1812  0.1644
 2303W        W 5901   8.206   3.944   0.562  0.1665 -0.1192 -0.0315
 2304W        W 5902  10.482  14.892  15.881  0.1259 -0.0910 -0.5541
 2305W        W 5903   3.413   1.589   5.157 -0.3835  0.0137  0.2606
 2306W        W 5904   7.378   8.481  15.838  0.0350 -0.2162 -0.4598
 2307W        W 5905   1.823  16.375  14.845 -0.2377 -0.1469  0.0627
 2308W        W 5906   6.729   2.973   0.796 -0.0882 -0.2371  0.2094
 2309W        W 5907   7.293   0.716   5.011  0.1209 -0.2077 -0.2967
 2310W        W 5908   7.129   6.929  13.119  0.2054  0.2058  0.2802
 2311W        W 5909   3.479   1.543   4.375  0.1266 -0.0919 -0.0682
 2312W        W 5910   5.680  13.535   7.229  0.0837 -0.1514  0.1552
 2313W        W 5911   2.589  13.077  13.013  0.1287  0.2462 -0.0095
 2314W        W 5912  12.193   8.053   5.700  0.0607  0.0008  0.3279
 2315W        W 5913   5.222   5.807   9.300  0.0828  0.0260 -0.0906
 2316W        W 5914   1.798   3.964   6.349  0.2101 -0.0229  0.1676
 2317W        W 5915  14.580   0.192   3.448  0.1906  0.0960  0.2999
 2318W        W 5916   3.978  13.550  12.915 -0.2029  0.0289  0.0451
 2319W        W 5917   2.805   8.187  12.442 -0.0561 -0.2398 -0.0857
 2320W        W 5918   8.814  12.179   6.519  0.0849 -0.3438 -0.0481
 2321W        W 5919  16.090   2.944  13.649 -0.0805 -0.1951 -0.1566
 2322W        W 5920   5.768   7.412   7.609 -0.2371  0.1313 -0.2531
 2323W        W 5921  10.826   3.202   8.325 -0.1517  0.0206  0.0648
 2324W        W 5922  11.218  10.069  13.381 -0.1992 -0.1029  0.0257
 2325W        W 5923   8.236   1.424   6.637 -0.1073  0.2775 -0.0020
 2326W        W 5924   6.380   9.543  10.699 -0.1940 -0.0366  0.0208
 2327W        W 5925  10.349   2.425  10.558  0.0121  0.1119 -0.0121
 2328W        W 5926  13.350   3.629  11.802 -0.1141 -0.1061  0.1135
 2329W        W 5927  12.034  13.240  14.978 -0.0946  0.3080  0.0442
 2330W        W 5928   1.103   7.483   8.579  0.1904  0.0338  0.0201
 2331W        W 5929   4.968  11.455  10.246 -0.1701 -0.1896  0.1585
 2332W        W 5930  12.961  14.844   6.592  0.1472  0.0550 -0.1034
 2333W        W 5931   6.188   7.336   9.967  0.1438  0.2319 -0.4518
 2334W        W 5932   6.191   3.673  11.611  0.1197  0.2883  0.3406
 2335W        W 5933  12.468   4.338   7.696  0.3606 -0.3008 -0.4271
 2336W        W 5934   2.872  11.722   8.263 -0.0040 -0.2246 -0.0378
 2337W        W 5935   8.348   7.239   0.815 -0.2919  0.0798  0.2311
 2338W        W 5936   5.017   8.188  14.032 -0.0894  0.2288 -0.0841
 2339W        W 5937   7.143   3.408   8.957  0.2110 -0.2103  0.1785
 2340W        W 5938   6.179  10.178   4.673 -0.0647 -0.3639  0.0651
 2341W        W 5939   4.471   8.674   2.340 -0.0528 -0.5391 -0.0362
 2342W        W 5940   4.949   5.850   2.084 -0.0029  0.0523  0.0220
 2343W        W 5941   2.593   9.653  14.825 -0.1178  0.0385 -0.0790
 2344W        W 5942   4.975   1.603   6.140 -0.1326  0.2907 -0.1662
 2345W        W 5943   7.917   5.427   4.323  0.2855 -0.2229 -0.0177
 2346W        W 5944  15.876   5.488  14.319 -0.1863  0.0061 -0.0487
 2347W        W 5945  14.404   6.567  15.928  0.0652 -0.1734  0.1883
 2348W        W 5946  12.182   9.414   3.301  0.1756  0.2113  0.1388
 2349W        W 5947  12.026   3.308   4.652 -0.0783  0.2509  0.0064
 2350W        W 5948   5.808   8.064  14.829  0.1860 -0.1803 -0.3052
 2351W        W 5949  14.736   0.176  10.992 -0.1525  0.1098  0.0014
 2352W        W 5950  11.303  10.114   0.496  0.3661  0.0272  0.1162
 2353W        W 5951  10.110   0.367   4.030  0.3630  0.2325 -0.1713
 2354W        W 5952   5.731   6.841   2.161  0.1750 -0.1177  0.1824
 2355W        W 5953  11.914   1.725  14.746 -0.2566  0.1812  0.0730
 2356W        W 5954  10.232   9.567   4.376 -0.0532 -0.0253  0.0987
 2357W        W 5955  11.798   9.735  11.616 -0.0538 -0.0136  0.2173
 2358W        W 5956  14.102   7.222  12.086 -0.1299  0.1856  0.3381
 2359W        W 5957   2.258   5.687  16.375 -0.2246  0.2450 -0.4975
 2360W        W 5958   5.255  12.250   4.023 -0.1903 -0.2408 -0.0344
 2361W        W 5959   4.676   8.742   7.424  0.0932  0.0859  0.0705
 2362W        W 5960   2.392   1.988   9.941 -0.2873 -0.5641  0.0591
 2363W        W 5961  14.394   2.354   4.365 -0.0749  0.0099 -0.0957
 2364W        W 5962   9.229   6.160   9.391  0.0198 -0.1329  0.0846
 2365W        W 5963   3.767  15.456   2.942  0.1853  0.1005  0.0817
 2366W        W 5964  11.909   6.331   1.246 -0.0094 -0.1312 -0.1363
 2367W        W 5965   6.033   9.176   4.542 -0.0430  0.1775  0.2080
 2368W        W 5966   5.272   1.190   4.928 -0.0664  0.3129  0.2130
 2369W        W 5967   9.854   7.821  13.103 -0.0509  0.0462 -0.0732
 2370W        W 5968   6.121  13.229   0.044 -0.0236 -0.1394  0.2260
 2371W        W 5969   4.952  15.512   9.178  0.0911 -0.2555 -0.0440
 2372W        W 5970   9.501  15.922  10.343  0.0020  0.1740  0.0793
 2373W        W 5971   7.008   1.911   4.965 -0.1763  0.1148 -0.0300
 2374W        W 5972  15.974   0.294  12.861  0.0686  0.1915 -0.2444
 2375W        W 5973   9.471   4.332   2.788  0.1317 -0.0499 -0.1051
 2376W        W 5974   2.756  10.599   5.880  0.3117  0.0890  0.0357
 2377W        W 5975   7.423   5.198   5.804 -0.0419  0.2777  0.2251
 2378W        W 5976   5.859  15.388  11.528 -0.1515  0.2021 -0.3191
 2379W        W 5977  15.109   5.062   5.127 -0.0495  0.1656 -0.5002
 2380W        W 5978  11.565   4.076   4.716  0.1811  0.2618 -0.3467
 2381W        W 5979   6.695  12.034   9.100  0.1205 -0.0005 -0.3893
 2382W        W 5980  12.929  10.920   9.163  0.0872  0.1487 -0.1351
 2383W        W 5981  11.306   6.221   2.629 -0.3420 -0.3073 -0.3269
 2384W        W 5982  11.793   6.202   2.369 -0.1407 -0.0052  0.1103
 2385W        W 5983  10.108  10.163  10.562  0.0791  0.1071 -0.1573
 2386W        W 5984   8.137  10.418   9.670  0.0049  0.4927  0.0709
 2387W        W 5985   8.659  15.789   7.479  0.1187  0.0761  0.0973
 2388W        W 5986  13.184   7.724   8.599 -0.2213  0.0982  0.2367
 2389W        W 5987  15.519  15.628  12.896  0.1582  0.1109  0.2706
 2390W        W 5988  12.218   6.962   5.643  0.1318 -0.0121 -0.1455
 2391W        W 5989  13.130   1.014  14.051 -0.0794 -0.0907  0.1474
 2392W        W 5990  14.760   3.890   1.180 -0.1556  0.3160 -0.0991
 2393W        W 5991   5.628  11.755  15.453 -0.0886  0.0231  0.2792
 2394W        W 5992  14.442  10.170   4.610 -0.2662  0.2647 -0.4899
 2395W        W 5993  12.206   3.719  11.219  0.2704  0.1071 -0.2425
 2396W        W 5994   4.159   5.225   2.140  0.2693  0.0115 -0.0381
 2397W        W 5995   3.400  15.054  10.513 -0.2700  0.2543  0.0674
 2398W        W 5996   0.423  14.999  11.142  0.1846 -0.1859 -0.2962
 2399W        W 5997  13.117   0.851  13.146 -0.1573  0.1096 -0.0010
 2400W        W 5998   6.250   7.473  13.036 -0.2629 -0.2117  0.0562
 2401W        W 5999   5.504   0.850   6.018 -0.3393  0.3056 -0.1537
 2402W        W 6000   0.720   1.031   1.688  0.2077 -0.0609 -0.0976
 2403W        W 6001  12.136  13.684   0.272 -0.1585  0.1203  0.2752
 2404W        W 6002  12.867   5.171  14.416 -0.0518 -0.1429  0.0811
 2405W        W 6003  12.228  14.353  16.033  0.1750 -0.1374 -0.0767
 2406W        W 6004  14.555   7.555  13.300  0.0725 -0.3066 -0.3950
 2407W        W 6005   8.270   0.319  12.875 -0.2154  0.0112 -0.1952
 2408W        W 6006  10.163   5.821   4.325 -0.0805  0.2062 -0.5181
 2409W        W 6007   3.605   9.555   4.577  0.4716 -0.2675 -0.0305
 2410W        W 6008   2.590  14.087  13.457  0.1778  0.2852 -0.0599
 2411W        W 6009  15.508  14.056   3.297 -0.0060 -0.0346  0.0694
 2412W        W 6010   3.822   5.898  16.067 -0.0950 -0.3053 -0.0621
 2413W        W 6011   4.248   2.693   6.724 -0.2768 -0.0201 -0.0535
 2414W        W 6012  14.924   1.546  10.369 -0.1352  0.1551 -0.2885
 2415W        W 6013   3.308  11.073   6.986  0.1835  0.0847 -0.4135
 2416W        W 6014   0.376   0.980   2.822  0.1540 -0.1804 -0.2140
 2417W        W 6015  15.643  10.040   0.516 -0.0173 -0.2213  0.1047
 2418W        W 6016  10.776   2.003  12.315  0.0117  0.0446  0.1993
 2419W        W 6017   5.088  11.325  14.891 -0.1899  0.0592 -0.4803
 2420W        W 6018   9.036  12.540   7.079 -0.0119 -0.1735 -0.0877
 2421W        W 6019   4.215  13.201  14.005  0.1465  0.0614  0.0044
 2422W        W 6020   4.821   2.905   2.863  0.1906  0.2426  0.1353
 2423W        W 6021  11.006   0.997   9.407  0.2909 -0.0590 -0.0527
 2424W        W 6022   3.020   7.100   3.536 -0.1310 -0.1903 -0.1177
 2425W        W 6023  11.441  14.172  12.491 -0.1646 -0.0332 -0.4232
 2426W        W 6024  10.975   2.201   8.035 -0.5857  0.1377 -0.0743
 2427W        W 6025  11.955   3.421   1.458  0.0289 -0.1268 -0.1817
 2428W        W 6026  11.350  10.811  11.091  0.1662 -0.1998  0.1361
 2429W        W 6027  14.751   7.313   7.035  0.0945 -0.1285 -0.1779
 2430W        W 6028   3.658   3.508   0.618  0.3005 -0.0420  0.1861
 2431W        W 6029   9.429   7.726   8.846 -0.3825  0.1767  0.0558
 2432W        W 6030  12.716   1.605   3.026 -0.1948  0.3868 -0.0454
 2433W        W 6031   1.698   2.759  14.043 -0.2385  0.0095  0.1478
 2434W        W 6032   0.961   4.365   5.264 -0.0344 -0.1454  0.3105
 2435W        W 6033   1.887  10.937   4.896  0.3762 -0.1618 -0.2431
 2436W        W 6034   6.902  15.927  15.795  0.2789 -0.1363 -0.0015
 2437W        W 6035   9.819   0.224  10.978  0.1982 -0.1083 -0.0563
 2438W        W 6036   4.612   0.792   6.273 -0.1381 -0.2332  0.1843
 2439W        W 6037   1.672  14.634   7.716  0.1957  0.3038  0.1011
 2440W        W 6038   4.376   2.625   4.732  0.2451 -0.0564  0.1933
 2441W        W 6039   5.090   4.297   2.662  0.4646 -0.4031 -0.0484
 2442W        W 6040  10.232  15.443   1.464 -0.1412  0.0417 -0.0316
 2443W        W 6041   0.469  13.913   3.018 -0.1520 -0.0777 -0.1649
 2444W        W 6042   6.741   0.702  12.191 -0.1750 -0.1440  0.2438
 2445W        W 6043   8.971  14.288  10.949 -0.0412 -0.1250 -0.0269
 2446W        W 6044  11.546  14.453  12.883  0.0301  0.1483  0.1802
 2447W        W 6045  16.072  14.190   1.928  0.0476  0.0904 -0.0474
 2448W        W 6046  15.034   5.319  10.898  0.2281 -0.1161  0.1349
 2449W        W 6047   3.683  10.291   3.077  0.0177 -0.2789  0.0739
 2450W        W 6048   1.812  12.249   3.554 -0.1651 -0.1646 -0.0549
 2451W        W 6049   1.267   7.945  14.667 -0.0879  0.2207 -0.1251
 2452W        W 6050   6.281   7.323  15.439 -0.0845  0.0612 -0.0411
 2453W        W 6051  11.441  10.120   2.479 -0.1564  0.0159  0.0121
 2454W        W 6052   5.704   9.379   5.333 -0.1533  0.3106 -0.1057
 2455W        W 6053  15.633  15.659   5.839  0.4008  0.2214 -0.2744
 2456W        W 6054   1.930   8.337   1.092 -0.1066  0.1613 -0.0976
 2457W        W 6055   5.308   9.669   0.410 -0.2813 -0.1155  0.0859
 2458W        W 6056  15.040  10.653   3.110  0.4263 -0.0695 -0.3278
 2459W        W 6057   7.481  14.786   1.643  0.3520  0.1301  0.4036
 2460W        W 6058  13.266   1.883  10.275 -0.2398 -0.2564 -0.1826
 2461W        W 6059  11.747   8.251   6.533 -0.0104 -0.1931 -0.6699
 2462W        W 6060  10.083  11.169   4.822  0.1223  0.1988 -0.2286
 2463W        W 6061   2.768  13.154   3.676 -0.1633  0.0483  0.1788
 2464W        W 6062   2.753   3.169  14.411 -0.3504  0.2433 -0.0685
 2465W        W 6063  15.890   3.936   1.000 -0.1297 -0.0361  0.1362
 2466W        W 6064  15.821  10.603   5.232 -0.1930  0.1905  0.0266
 2467W        W 6065  13.652   9.176  14.897  0.1817  0.3589  0.3436
 2468W        W 6066  13.035   1.236   6.628 -0.1471  0.1363  0.1540
 2469W        W 6067   7.952   9.010   7.995 -0.2454  0.2716 -0.2440
 2470W        W 6068  12.252  11.316   3.508  0.1413  0.2128  0.2458
 2471W        W 6069   3.350  11.317   5.922 -0.1607  0.1357  0.1453
 2472W        W 6070  14.128  16.294  10.126  0.0617  0.3266  0.1919
 2473W        W 6071  10.981  14.681  15.814  0.1629  0.0189  0.3015
 2474W        W 6072   0.405   6.316   8.199 -0.1459  0.0123  0.3470
 2475W        W 6073   1.110   2.259  15.415  0.0154 -0.0219 -0.1939
 2476W        W 6074   6.330   6.271   3.186 -0.1429  0.2014 -0.0769
 2477W        W 6075   7.310   9.901  15.082  0.0133  0.3404  0.1827
 2478W        W 6076   5.314  14.964  15.001 -0.2315 -0.1008 -0.0333
 2479W        W 6077  13.065  13.451  11.275  0.0369  0.3561 -0.0877
 2480W        W 6078  10.730  10.596   1.846 -0.1569  0.3669  0.0129
 2481W        W 6079   5.752   7.059   8.418 -0.0375 -0.2144 -0.2850
 2482W        W 6080   6.136   5.210  15.712  0.1553 -0.0383  0.3379
 2483W        W 6081  13.754   4.944   4.223 -0.1567 -0.0149  0.0543
 2484W        W 6082   6.560   1.256   5.317  0.1300 -0.0636 -0.1642
 2485W        W 6083  15.885  13.909  11.254 -0.0858  0.1190  0.2132
 2486W        W 6084   7.582   8.560   9.580 -0.1608 -0.4841  0.2598
 2487W        W 6085   4.568   2.406   5.666 -0.0299 -0.1469 -0.0767
 2488W        W 6086   8.051   5.063  13.943 -0.2210  0.1125 -0.1598
 2489W        W 6087   6.753  11.916   9.732 -0.0426  0.1626 -0.3366
 2490W        W 6088   7.075  13.772   6.643 -0.0246  0.1479  0.3118
 2491W        W 6089   4.974   7.307   3.902 -0.2401  0.2153  0.2313
 2492W        W 6090  11.887  10.009   2.666 -0.3960  0.0909 -0.0586
 2493W        W 6091   0.224   6.926   7.156  0.2153 -0.0407  0.1349
 2494W        W 6092   0.047   3.209  15.335 -0.2844  0.3488 -0.1236
 2495W        W 6093   5.828  15.833   1.885  0.0893  0.4167  0.0765
 2496W        W 6094  13.879   7.767  12.764  0.0781  0.3211 -0.1053
 2497W        W 6095   7.712   0.668  14.667 -0.1576 -0.1264  0.1599
 2498W        W 6096   2.383   0.600   2.319  0.2218  0.1437 -0.1035
 2499W        W 6097  11.805   2.450   3.005 -0.0931  0.1120  0.2539
 2500W        W 6098   5.682   0.268   3.982  0.1226  0.0233 -0.1128
 2501W        W 6099   2.721   2.453  13.864  0.1434  0.3655 -0.1640
 2502W        W 6100  12.649   2.296   3.413  0.0737  0.0196 -0.3839
 2503W        W 6101   4.224   3.143   4.808 -0.0467  0.1304 -0.0727
 2504W        W 6102  11.857  12.749   6.311 -0.1436  0.4291 -0.2383
 2505W        W 6103   4.037   1.002   8.018 -0.2754 -0.0982  0.1173
 2506W        W 6104  11.187  14.909   4.572 -0.0106 -0.1646  0.0626
 2507W        W 6105   4.632   3.658   9.734  0.0207 -0.1238  0.1727
 2508W        W 6106  11.417   4.497   5.138  0.1811 -0.1246 -0.1274
 2509W        W 6107   9.326   8.410   2.985 -0.1196  0.1072  0.2620
 2510W        W 6108   4.957   3.640   5.474 -0.0552 -0.2018  0.0326
 2511W        W 6109   6.302   0.227  16.158 -0.1833 -0.0962  0.2067
 2512W        W 6110  11.729   3.236   0.443  0.2079  0.0943 -0.4077
 2513W        W 6111   0.446  11.994   8.309  0.1457  0.2086  0.0049
 2514W        W 6112   5.014  15.813   6.817 -0.3454 -0.1095 -0.1652
 2515W        W 6113   6.648  10.841   3.446  0.1631  0.1400 -0.1749
 2516W        W 6114   9.422  15.705   8.141  0.2140  0.1321  0.0163
 2517W        W 6115   6.760  15.881  12.696  0.0516 -0.1070 -0.0469
 2518W        W 6116  14.673   5.552   6.491 -0.0006 -0.0055  0.1512
 2519W        W 6117  15.452   5.966   5.984  0.2299 -0.0007  0.1107
 2520W        W 6118   3.984  12.092  15.062  0.0775 -0.0607 -0.3752
 2521W        W 6119  11.606   1.209  14.138 -0.1609 -0.0472  0.2937
 2522W        W 6120   1.566  14.634  10.807  0.3630 -0.0632 -0.0768
 2523W        W 6121   3.115   6.835   5.145  0.0140  0.2148  0.3388
 2524W        W 6122  14.450  12.421   4.062 -0.3474 -0.2290  0.4051
 2525W        W 6123  11.475  15.765   5.551 -0.0029 -0.1291  0.0363
 2526W        W 6124  10.987  12.412   5.976 -0.1196 -0.2991 -0.0731
 2527W        W 6125  11.054   7.209  12.536 -0.3710  0.0120  0.1585
 2528W        W 6126   7.684   0.602   0.843  0.3090  0.1999  0.1583
 2529W        W 6127  15.774  16.125  12.422 -0.0294 -0.1469  0.0204
 2530W        W 6128  10.414  13.908   1.054  0.1557 -0.3226  0.1670
 2531W        W 6129   6.566   6.440  11.756  0.2202  0.3160 -0.2310
 2532W        W 6130  14.169   1.475   1.728 -0.2095 -0.2518 -0.1279
 2533W        W 6131   8.481   4.712   7.643  0.1393  0.0154 -0.0022
 2534W        W 6132   6.857   4.427   7.016  0.1338  0.0443  0.0914
 2535W        W 6133   0.882   8.224   7.486 -0.3144  0.4077  0.1724
 2536W        W 6134   2.396   7.732   2.817 -0.0851 -0.2939 -0.1183
 2537W        W 6135   3.876   0.107  10.893  0.1672  0.1545  0.0003
 2538W        W 6136  11.739   7.193  11.540  0.0015 -0.3681 -0.2744
 2539W        W 6137   3.901  11.168  11.386 -0.3921  0.1396  0.0095
 2540W        W 6138   2.585   4.215  13.397 -0.0300 -0.1760 -0.1207
 2541W        W 6139  12.069  15.906  11.149 -0.2901  0.2702 -0.1440
 2542W        W 6140  11.638   9.786   7.380 -0.0667  0.0692  0.2473
 2543W        W 6141   1.958   9.050  16.170  0.0544 -0.3483  0.1123
 2544W        W 6142   0.060   5.688  12.893 -0.1197 -0.0446  0.0396
 2545W        W 6143   8.649  12.135   9.352 -0.4531 -0.0984  0.0964
 2546W        W 6144   6.894   4.427  12.551  0.1172 -0.0071  0.0722
 2547W        W 6145  15.229   8.575  12.423  0.0397  0.0382  0.3240
 2548W        W 6146  13.055   0.264  15.831  0.0168  0.0831 -0.0083
 2549W        W 6147   0.393   6.618   2.641 -0.1825 -0.3415  0.2993
 2550W        W 6148   6.912  13.213   4.536  0.0379  0.5332  0.5174
 2551W        W 6149  10.370   0.592   9.841 -0.0614 -0.1713 -0.0021
 2552W        W 6150   1.118  13.977   4.431 -0.0779 -0.0187 -0.0781
 2553W        W 6151  12.696   1.726  13.729  0.1413 -0.1784 -0.0834
 2554W        W 6152   7.848   7.506   6.833  0.0523  0.1344  0.0595
 2555W        W 6153  10.284   4.378   7.970 -0.1220  0.1615 -0.0164
 2556W        W 6154  11.553  14.045   6.919 -0.0164  0.1753  0.1172
 2557W        W 6155  12.207   9.956   7.248  0.1990 -0.1006  0.0465
 2558W        W 6156   0.020   5.041  15.809 -0.1675  0.2952  0.0049
 2559W        W 6157  10.249  14.072   4.692 -0.1204 -0.1028 -0.4570
 2560W        W 6158   7.616  14.436  14.161 -0.0111 -0.2630  0.0582
 2561W        W 6159   9.295   4.918  10.490 -0.2298  0.2181 -0.0309
 2562W        W 6160  16.264   7.931   2.631 -0.0220 -0.2246 -0.1473
 2563W        W 6161   4.411   3.369   4.413 -0.2384  0.0032  0.3576
 2564W        W 6162  11.211  11.741   0.962 -0.0972 -0.1068 -0.2818
 2565W        W 6163  14.762   4.038   8.270  0.4085 -0.0803 -0.0963
 2566W        W 6164   8.342   5.875   5.168  0.2763 -0.0334  0.0236
 2567W        W 6165   1.554   9.716   9.498  0.1401 -0.1497  0.1616
 2568W        W 6166  13.583   1.086  14.667 -0.2056 -0.2208 -0.4723
 2569W        W 6167  13.857  16.148   2.346 -0.0569 -0.2072 -0.0397
 2570W        W 6168   6.230   2.555   1.728 -0.1854  0.1274  0.3333
 2571W        W 6169  13.588   8.343   9.228 -0.0035  0.1409 -0.0912
 2572W        W 6170   2.268   6.209   0.021  0.0347  0.3635 -0.2656
 2573W        W 6171   0.870   6.203   7.336  0.0719  0.2369 -0.0283
 2574W        W 6172  10.246   3.258   2.790  0.0596 -0.1951  0.0398
 2575W        W 6173   3.568  13.494   6.099 -0.2109 -0.2573  0.0112
 2576W        W 6174   9.422  16.005   1.984  0.2543  0.0788  0.3305
 2577W        W 6175  11.016   1.928   6.029 -0.0291  0.2050 -0.1503
 2578W        W 6176   7.171   4.969  15.795  0.1962  0.0697  0.0453
 2579W        W 6177   0.524  15.457   4.923 -0.1540 -0.0911 -0.2766
 2580W        W 6178   9.289  11.361   6.529  0.0900  0.0140 -0.0420
 2581W        W 6179   6.607   6.197  15.722  0.0180 -0.1456 -0.0238
 2582W        W 6180   1.098   3.039  12.648 -0.0161  0.3954  0.4320
 2583W        W 6181   6.845  10.411   8.998  0.1906 -0.2469  0.1767
 2584W        W 6182  15.018  13.631   4.014 -0.3037  0.0431  0.2217
 2585W        W 6183   6.100  16.247  10.161  0.2995 -0.0003  0.2314
 2586W        W 6184   6.297   3.163  15.741 -0.1064  0.2479  0.1401
 2587W        W 6185   5.357  13.330   7.604 -0.0689  0.2019  0.1489
 2588W        W 6186   8.836  13.848  13.362  0.0491  0.4015  0.0015
 2589W        W 6187  16.226  14.533   4.660  0.3947  0.1411  0.1781
 2590W        W 6188  12.189   2.457   1.748 -0.0620 -0.2435  0.1375
 2591W        W 6189   6.892   5.810  15.887  0.1291  0.0808  0.0828
 2592W        W 6190   6.464  15.421  11.412  0.0233  0.0358  0.2974
 2593W        W 6191   9.738   5.924  10.487  0.0827 -0.0719  0.0056
 2594W        W 6192   0.118   8.083   5.791  0.1972  0.1685 -0.1430
 2595W        W 6193   4.575  13.152  11.228  0.0687 -0.3469 -0.1827
 2596W        W 6194  11.101   4.445  10.423  0.1328 -0.2092 -0.0205
 2597W        W 6195  12.465  15.040   6.246 -0.2619  0.2782 -0.4689
 2598W        W 6196   5.905   5.943  13.717  0.0113  0.4127  0.0555
 2599W        W 6197  10.743   5.196  15.578  0.0125 -0.1954 -0.0667
 2600W        W 6198  11.027   4.684   4.171 -0.0188 -0.2082 -0.1822
 2601W        W 6199   2.194  11.997   7.470  0.1569  0.0123  0.2912
 2602W        W 6200   8.688  11.055  16.126  0.0752 -0.2135  0.0228
 2603W        W 6201   3.768  15.087  14.631 -0.1414  0.0365 -0.2563
 2604W        W 6202  15.269   0.752  14.984 -0.0731  0.1051 -0.2624
 2605W        W 6203   9.177   8.532  13.035 -0.1497  0.1226 -0.0789
 2606W        W 6204   7.543   4.479  11.071 -0.2189 -0.0122  0.0318
 2607W        W 6205   2.446  15.659  13.276  0.0776 -0.1395  0.2990
 2608W        W 6206  12.267   9.867  10.739 -0.1223 -0.4391  0.1727
 2609W        W 6207   5.794   7.499  15.437 -0.0831  0.1057 -0.1403
 2610W        W 6208   7.965   1.283   4.413  0.2820  0.0033  0.1213
 2611W        W 6209   8.554   5.652   4.682 -0.2575  0.1381  0.0897
 2612W        W 6210  16.091   8.038   4.253  0.3727 -0.2635  0.1527
 2613W        W 6211  16.212   0.621  13.697  0.1346 -0.1704  0.2754
 2614W        W 6212   8.509  15.745   8.885 -0.0355  0.0908  0.0420
 2615W        W 6213   0.375   1.171   2.012 -0.0778 -0.1440 -0.1840
 2616W        W 6214   4.584  10.943  15.183 -0.1186  0.0372 -0.0425
 2617W        W 6215   0.498  11.555   7.348  0.2327  0.3035 -0.1739
 2618W        W 6216   6.528  12.322   8.505  0.0900 -0.0975  0.3030
 2619W        W 6217   9.003  13.198   5.526  0.0510  0.1835  0.1819
 2620W        W 6218   0.581   0.456   2.854  0.0993  0.1260  0.2321
 2621W        W 6219   5.962   1.746  12.191  0.2243 -0.0584  0.1421
 2622W        W 6220   8.710  11.010   7.724  0.2140 -0.1169  0.2874
 2623W        W 6221   6.752  13.899  12.880  0.0629  0.1359 -0.1730
 2624W        W 6222   0.175  14.210  11.049  0.1802  0.0477 -0.0648
 2625W        W 6223   2.708  11.680   6.968 -0.3359 -0.1049  0.1809
 2626W        W 6224  11.966   9.074   5.358  0.1605  0.1312 -0.0805
 2627W        W 6225  14.788   9.421  12.622 -0.1832  0.0616 -0.0746
 2628W        W 6226   4.025   9.384   7.523  0.0180  0.0684 -0.0797
 2629W        W 6227  12.785  13.909  12.984 -0.3488  0.0335 -0.0818
 2630W        W 6228   4.616  13.843   1.643 -0.1691 -0.1339  0.0229
 2631W        W 6229   2.556   7.474   4.567  0.2282 -0.1005  0.1950
 2632W        W 6230   2.422  11.186  14.665  0.0941  0.1907  0.0468
 2633W        W 6231  14.220  14.858  10.520  0.1357 -0.4587 -0.1307
 2634W        W 6232  13.969   8.060  11.249  0.1865  0.0234  0.0225
 2635W        W 6233  12.347   1.691  10.447 -0.1746 -0.1017  0.1513
 2636W        W 6234   3.787   5.843  13.421  0.1064 -0.0351 -0.0392
 2637W        W 6235  11.017   8.411   9.445  0.1447  0.0510  0.4411
 2638W        W 6236   7.362   2.403   2.911 -0.0832 -0.3723  0.2364
 2639W        W 6237   5.720  12.297   8.117 -0.0743 -0.0998  0.1877
 2640W        W 6238  14.355   3.703  10.508 -0.1574 -0.0315 -0.1753
 2641W        W 6239  10.857   7.223   5.717  0.2718  0.1897  0.1973
 2642W        W 6240   3.822   3.159   4.430  0.0919 -0.0436  0.0328
 2643W        W 6241  11.359   7.275  12.070 -0.0730  0.1506 -0.2718
 2644W        W 6242   9.035   9.476   9.818 -0.0052  0.1207  0.0929
 2645W        W 6243  13.657   9.519  10.548  0.2760  0.1952  0.0990
 2646W        W 6244   2.143  15.862   2.172 -0.2240 -0.2129  0.3870
 2647W        W 6245   4.661  15.917   3.719 -0.0277 -0.1487  0.2128
 2648W        W 6246   5.976  15.925   8.548  0.2953 -0.0783 -0.0651
 2649W        W 6247  13.134  11.958   3.044 -0.2019  0.1378  0.0473
 2650W        W 6248   1.320  15.107   8.042 -0.0310 -0.0103 -0.0676
 2651W        W 6249   0.334   2.784   1.307 -0.1845 -0.1172  0.1542
 2652W        W 6250   7.850   2.283  15.261 -0.2432  0.1271 -0.1502
 2653W        W 6251   1.375  13.824  14.175  0.0873  0.1425  0.1473
 2654W        W 6252   6.957   1.925  14.131 -0.0045  0.5358 -0.0694
 2655W        W 6253   0.343   3.150   0.985 -0.0202  0.0546 -0.1615
 2656W        W 6254   3.071   0.666   7.961  0.1906 -0.2029  0.1455
 2657W        W 6255  14.390   3.882   8.615 -0.0108 -0.0763  0.0888
 2658W        W 6256  14.412   9.638   3.743 -0.0020  0.2079  0.1525
 2659W        W 6257   2.602  14.329   6.771  0.1069  0.1397 -0.2364
 2660W        W 6258   3.874   9.045   8.520  0.0303  0.2775  0.4398
 2661W        W 6259   5.319  14.883   9.890  0.1998 -0.1021  0.0047
 2662W        W 6260  14.807  10.794   2.262 -0.0691 -0.3704 -0.1899
 2663W        W 6261   9.015   5.839   4.899 -0.1174  0.0215 -0.0024
 2664W        W 6262   1.314   3.444   0.568 -0.2208 -0.0752 -0.1635
 2665W        W 6263   3.184   0.361  13.208 -0.0903  0.1065  0.2591
 2666W        W 6264  10.168   8.343   0.300 -0.1159 -0.0149 -0.1280
 2667W        W 6265  11.394   2.646  10.348 -0.0900  0.2447  0.0446
 2668W        W 6266   2.768  14.649   0.181  0.1513 -0.0171  0.0572
 2669W        W 6267   0.237   5.446   3.433  0.1199 -0.2486  0.1212
 2670W        W 6268   7.162   7.611   2.516 -0.0769 -0.0000  0.3051
 2671W        W 6269   6.739   1.773   4.567 -0.3355 -0.1748  0.2255
 2672W        W 6270   6.229   7.013  11.160 -0.1687 -0.2957 -0.0129
 2673W        W 6271   6.783  11.010   3.934 -0.2495  0.1908 -0.1571
 2674W        W 6272   5.340   2.812  11.513 -0.2257 -0.1497  0.0225
 2675W        W 6273   8.900  12.298   8.345 -0.0305  0.1054  0.3807
 2676W        W 6274   4.694  10.908   7.948  0.1573 -0.2433  0.0275
 2677W        W 6275   7.182   2.734   2.586  0.1192  0.1269 -0.3878
 2678W        W 6276   8.862   3.511   8.472 -0.0805  0.1852 -0.3649
 2679W        W 6277   4.891   1.182  15.656 -0.1353  0.2342  0.0153
 2680W        W 6278   6.628   1.113   2.093  0.1592 -0.2589 -0.0925
 2681W        W 6279  12.567   5.704  14.993  0.1289 -0.0845 -0.2038
 2682W        W 6280   4.590   8.281  14.324 -0.1763  0.2298  0.3305
 2683W        W 6281   7.188   0.963   4.604  0.1701 -0.2840 -0.0936
 2684W        W 6282   2.003   8.197   6.187  0.0879 -0.1518  0.0987
 2685W        W 6283   3.587   9.759   3.125  0.1306  0.0053 -0.1263
 2686W        W 6284   0.819   8.978  11.845 -0.0404  0.1157 -0.1253
 2687W        W 6285   6.005  13.480  13.553 -0.0681  0.1396  0.2550
 2688W        W 6286   1.705  11.618   0.693  0.0025  0.2039  0.1952
 2689W        W 6287   8.036  13.362   9.049  0.0462 -0.4953 -0.1362
 2690W        W 6288   8.563   1.069  15.534  0.1873 -0.1906 -0.0563
 2691W        W 6289   6.430   0.777   4.394  0.0282  0.0385 -0.1096
 2692W        W 6290  10.602  15.233   1.226 -0.0172 -0.0947  0.1179
 2693W        W 6291   1.623  11.055  14.712  0.2711 -0.1556 -0.2107
 2694W        W 6292   5.365   2.373   3.584 -0.1644 -0.3846  0.2384
 2695W        W 6293   0.051  11.765   9.772  0.2088  0.2394  0.3635
 2696W        W 6294  13.393   5.512   9.184 -0.0790  0.2572 -0.4248
 2697W        W 6295   9.266  10.058   9.282 -0.0464 -0.0918 -0.3587
 2698W        W 6296   7.785   9.435  11.333 -0.0440 -0.0748  0.2511
 2699W        W 6297  15.759   1.212  15.587  0.2681 -0.0549 -0.0260
 2700W        W 6298   9.498   2.950  15.459 -0.0522 -0.0396 -0.1757
 2701W        W 6299   7.695   7.761   8.808  0.3698  0.1586 -0.0125
 2702W        W 6300   5.821   2.884   0.498 -0.1202  0.0225 -0.4840
 2703W        W 6301  12.646  12.960   5.000 -0.0572  0.0566  0.0225
 2704W        W 6302  15.683  13.386   0.345 -0.3574 -0.0280  0.2451
 2705W        W 6303   9.822  14.211  14.672  0.0445  0.1427  0.0807
 2706W        W 6304   6.189   1.892   8.165 -0.6722  0.0451 -0.0869
 2707W        W 6305   4.395   8.213   3.531 -0.2405 -0.1137 -0.1084
 2708W        W 6306   5.488   9.382  13.124 -0.2497  0.3089 -0.3068
 2709W        W 6307  16.012   3.546   0.619  0.0510  0.1552  0.0748
 2710W        W 6308   9.605   5.244  15.623 -0.0595 -0.0967  0.0566
 2711W        W 6309   2.665  11.076  11.909 -0.1346 -0.3574 -0.0248
 2712W        W 6310   1.515  12.297  12.867  0.0000 -0.0095 -0.1358
 2713W        W 6311   6.274   8.817  16.181 -0.1981 -0.1657 -0.1827
 2714W        W 6312  14.330   0.790  10.523 -0.0432  0.1979  0.1807
 2715W        W 6313  12.298   3.659   0.833 -0.1098  0.1948 -0.0671
 2716W        W 6314  13.209  10.074  15.155  0.0679 -0.3752  0.3032
 2717W        W 6315   2.898   2.018  10.328 -0.0699  0.2826  0.0700
 2718W        W 6316  15.399  14.270  16.122 -0.1652 -0.0148 -0.1698
 2719W        W 6317  14.762   2.478   7.910 -0.1507  0.0828 -0.2384
 2720W        W 6318   3.395   1.573  15.949 -0.0663  0.2419 -0.2813
 2721W        W 6319  15.035   4.429   4.652 -0.1406  0.1221 -0.0049
 2722W        W 6320   7.420   1.960   6.394 -0.0918 -0.4901  0.1565
 2723W        W 6321  10.505   6.782   5.892 -0.3283  0.0565  0.2500
 2724W        W 6322  12.365   8.567   3.405  0.0276 -0.0384 -0.4496
 2725W        W 6323  12.625   0.614   4.125 -0.0207  0.1378 -0.3124
 2726W        W 6324  15.570   0.057   9.481 -0.0038 -0.2985  0.2610
 2727W        W 6325  10.773  14.217   9.505 -0.1570  0.2413 -0.0800
 2728W        W 6326   2.467   6.946  13.857  0.2178 -0.2236 -0.2591
 2729W        W 6327  14.077   4.924   6.862  0.2920  0.0116 -0.0581
 2730W        W 6328   4.069   7.302   6.534 -0.0183 -0.0658  0.1940
 2731W        W 6329  15.958  12.693  10.466 -0.3896  0.0649  0.0385
 2732W        W 6330  15.789   6.543   1.497 -0.0466 -0.1346 -0.2345
 2733W        W 6331   5.659   6.554   8.281 -0.1653 -0.1167  0.0038
 2734W        W 6332   7.119   0.617   0.238  0.0137 -0.0181 -0.0693
 2735W        W 6333   2.121  13.359  16.253  0.0088  0.0440 -0.0332
 2736W        W 6334   3.482   7.074  12.710  0.3482  0.0471  0.0499
 2737W        W 6335   9.476   8.803   7.758 -0.3001 -0.0574 -0.1599
 2738W        W 6336   7.611   6.249   6.280 -0.3593 -0.2776  0.1317
 2739W        W 6337  12.160   4.687   2.497 -0.3012 -0.0214  0.1745
 2740W        W 6338   7.003   5.891   1.668 -0.1923  0.0394 -0.0880
 2741W        W 6339   1.226   7.720  12.687 -0.2207  0.0006 -0.1411
 2742W        W 6340  15.392   2.050  14.669  0.0474 -0.0626 -0.0158
 2743W        W 6341  12.033  11.798   8.323 -0.1366 -0.0444  0.1028
 2744W        W 6342  11.841  13.507  16.251 -0.1392  0.0598  0.0393
 2745W        W 6343   2.843   2.863  10.219 -0.3525 -0.0043  0.0835
 2746W        W 6344   6.672  15.951   3.684  0.1688  0.1434  0.0169
 2747W        W 6345   6.696   9.923   9.227  0.0382  0.0333 -0.3254
 2748W        W 6346  10.837   7.918  12.396  0.0479  0.0907  0.1322
 2749W        W 6347   3.152  15.140   0.426  0.0449 -0.0544  0.0735
 2750W        W 6348  10.200   5.034  10.871  0.0717  0.2636  0.0140
 2751W        W 6349   8.611   9.789   1.871 -0.1272  0.2064 -0.0131
 2752W        W 6350   1.395  10.709   6.014 -0.4295 -0.1162 -0.1949
 2753W        W 6351  15.870   2.366  16.192 -0.1744  0.0842 -0.0745
 2754W        W 6352   1.179   2.082   3.849 -0.1543  0.0276 -0.2145
 2755W        W 6353   8.670   5.918  11.071  0.0879 -0.0296 -0.3503
 2756W        W 6354  10.340   4.347  14.451  0.0325  0.1089 -0.0114
 2757W        W 6355   0.754   9.500   5.760  0.1765  0.0741  0.0809
 2758W        W 6356   2.827   9.517   5.861 -0.2215  0.1724  0.0921
 2759W        W 6357   8.237  11.314  12.925  0.0222  0.3110 -0.0180
 2760W        W 6358  12.258  11.152   3.054 -0.0980 -0.0822  0.2686
 2761W        W 6359  10.484  16.206  12.468 -0.2580  0.0670 -0.2427
 2762W        W 6360   8.687  12.008   5.166 -0.2269  0.1510  0.0069
 2763W        W 6361  10.914  15.868  15.220 -0.3108  0.1566 -0.0223
 2764W        W 6362  11.611   7.860   7.337  0.2806 -0.2268 -0.1418
 2765W        W 6363   4.743   1.829   5.323  0.0046  0.0019  0.3525
 2766W        W 6364   4.498   7.863   0.633  0.1210 -0.0503 -0.3260
 2767W        W 6365   5.676   8.539   7.222  0.2699 -0.2899 -0.2765
 2768W        W 6366  11.887   9.573   2.951  0.1404 -0.0854 -0.2483
 2769W        W 6367  12.921   8.600  13.952 -0.3597 -0.3623 -0.2605
 2770W        W 6368  13.757  10.068  10.590  0.1098 -0.0590  0.2810
 2771W        W 6369   8.232   4.384   7.256  0.0778  0.0160 -0.1295
 2772W        W 6370   0.104   3.590  15.680  0.0546 -0.1988  0.0457
 2773W        W 6371  13.207   4.464   6.213 -0.0905  0.3272 -0.2958
 2774W        W 6372   2.945  12.178  10.136  0.2629 -0.1447 -0.0419
 2775W        W 6373   5.946  11.282   9.215  0.0137  0.0725  0.0420
 2776W        W 6374   5.905   5.981   7.208  0.0286 -0.1731  0.1067
 2777W        W 6375   3.797   4.771   4.578 -0.1308 -0.1300 -0.0943
 2778W        W 6376   1.902   7.235   3.760 -0.1982  0.2136  0.1631
 2779W        W 6377  13.812   8.279  14.251 -0.1543  0.1351  0.0755
 2780W        W 6378   4.111   2.393  10.272 -0.1980  0.1322  0.2027
 2781W        W 6379   0.441   0.061  14.667  0.2146 -0.1816 -0.4309
 2782W        W 6380   9.068  11.257   1.982 -0.1520  0.1158  0.2887
 2783W        W 6381   2.518  10.957  13.675 -0.2406 -0.1960 -0.0268
 2784W        W 6382  15.579  12.878  13.526  0.0691  0.2653 -0.0038
 2785W        W 6383   2.029  16.357   2.273 -0.0918  0.1959 -0.6296
 2786W        W 6384   5.545   8.074   0.790  0.0845 -0.2572 -0.0472
 2787W        W 6385   6.888  15.021  15.613 -0.1236 -0.1751 -0.1694
 2788W        W 6386   3.049  14.389   4.449  0.0447  0.0022 -0.1900
 2789W        W 6387   0.564  12.056  13.478  0.2008 -0.2664  0.3973
 2790W        W 6388   8.967  10.084  15.256 -0.2428 -0.1008  0.0486
 2791W        W 6389   3.407   1.186   8.735 -0.0507  0.0513  0.1367
 2792W        W 6390   3.777   6.453   6.903 -0.0587 -0.1271 -0.2462
 2793W        W 6391  15.329   2.050   8.093 -0.1802 -0.0708  0.0155
 2794W        W 6392   3.164   1.284  15.112  0.1462  0.1621 -0.0188
 2795W        W 6393   7.820  13.166  14.728 -0.1864 -0.0264  0.2455
 2796W        W 6394   6.452   9.759   0.750  0.0482  0.0296  0.0796
 2797W        W 6395   5.570   1.262   8.476  0.0190  0.0305 -0.1085
 2798W        W 6396  11.940   1.324   8.307 -0.3977 -0.4508 -0.2042
 2799W        W 6397   3.871  10.153  11.730  0.0143  0.4884 -0.0488
 2800W        W 6398   5.850  10.241   2.423 -0.0929 -0.1297  0.0667
 2801W        W 6399   3.749   5.790   0.739 -0.1620 -0.2030 -0.0899
 2802W        W 6400  11.733  16.319   7.349  0.0896 -0.0511  0.0664
 2803W        W 6401   7.727   9.407  12.731  0.1828 -0.1678 -0.1570
 2804W        W 6402   3.706  12.378   0.932 -0.3956 -0.0231 -0.0826
 2805W        W 6403  15.911   4.789   0.645  0.1831  0.0725 -0.0629
 2806W        W 6404  13.579   7.429   4.991  0.0142 -0.0491 -0.4513
 2807W        W 6405   3.356   3.139  13.330 -0.4397 -0.0142  0.1214
 2808W        W 6406  14.565   5.741  14.980 -0.2633 -0.1353 -0.0247
 2809W        W 6407  11.033  10.210   9.693 -0.0767 -0.1292 -0.1921
 2810W        W 6408  13.337  13.296  15.352 -0.1550 -0.0633 -0.2150
 2811W        W 6409  14.483   1.209   5.854 -0.0688 -0.2547 -0.1650
 2812W        W 6410  14.154   8.491   3.000  0.3359  0.0903  0.2448
 2813W        W 6411   9.989   5.436   0.334 -0.3111 -0.0893  0.3086
 2814W        W 6412  10.748   1.389   1.477  0.5886 -0.0299 -0.1501
 2815W        W 6413   0.464   8.425  13.198  0.0270 -0.1465  0.0760
 2816W        W 6414  13.909   5.101  11.765  0.1197 -0.0834  0.1599
 2817W        W 6415  15.633   8.039   7.821  0.1015  0.2154 -0.0175
 2818W        W 6416  15.092  10.632   5.628  0.0817 -0.0457 -0.5815
 2819W        W 6417   6.887   4.554   5.385 -0.0381 -0.3014  0.2002
 2820W        W 6418   8.372  16.095  14.982  0.2697  0.1382 -0.1026
 2821W        W 6419   4.016   7.665  12.321 -0.2754  0.2304  0.0546
 2822W        W 6420   6.014   4.738   0.295 -0.2894  0.0148  0.0893
 2823W        W 6421   4.243  12.141   3.121 -0.1703  0.1043 -0.0751
 2824W        W 6422   2.995  12.312  13.467  0.2438 -0.1319 -0.0713
 2825W        W 6423  10.222   8.817  13.616 -0.1614  0.0611  0.0449
 2826W        W 6424   8.164  12.255   1.624  0.0083  0.1269  0.0278
 2827W        W 6425   6.641  15.819  11.856  0.0290  0.1660 -0.3565
 2828W        W 6426  11.471   9.315   3.220  0.0483  0.0244 -0.0147
 2829W        W 6427   3.252   7.597   2.396 -0.1212  0.0265 -0.1769
 2830W        W 6428   6.291  14.669   0.554  0.0850  0.1073  0.0357
 2831W        W 6429   7.318   0.772   9.311  0.1496  0.1173  0.0436
 2832W        W 6430  10.346   5.787   0.395  0.0104 -0.2595  0.3032
 2833W        W 6431  16.189  15.408   1.474 -0.1999 -0.1308  0.0519
 2834W        W 6432  15.858   7.406  15.631  0.1258  0.0338 -0.1148
 2835W        W 6433   9.866   1.560  13.966 -0.0076 -0.0396  0.0312
 2836W        W 6434   6.704   4.650  15.000 -0.0067 -0.0479 -0.2612
 2837W        W 6435   7.008   0.895  16.220 -0.2817 -0.3634 -0.2099
 2838W        W 6436   5.685  15.914  11.606  0.0179 -0.0017 -0.1385
 2839W        W 6437   9.183   6.129   6.665 -0.1410  0.1348 -0.0552
 2840W        W 6438   6.888  10.121   4.145 -0.1493 -0.1963  0.0441
 2841W        W 6439   5.096  11.600  16.275 -0.2822  0.0137  0.0795
 2842W        W 6440   8.704   6.947   9.327 -0.0805 -0.1173 -0.0094
 2843W        W 6441   9.423   2.508  16.386  0.0651 -0.0044  0.1254
 2844W        W 6442   5.314   1.614  11.551  0.0650  0.1421  0.0014
 2845W        W 6443   0.935  10.696   6.243  0.0194 -0.1538 -0.0187
 2846W        W 6444  12.570  15.554   9.029 -0.3263 -0.2865 -0.1637
 2847W        W 6445  11.982  10.631   8.658  0.3003 -0.1611  0.1570
 2848W        W 6446   9.102  10.261  15.740  0.0024 -0.3144  0.1882
 2849W        W 6447  11.424  11.166   1.096  0.0520  0.2572  0.0351
 2850W        W 6448   3.925  11.746  11.002 -0.0153 -0.1592 -0.0372
 2851W        W 6449  12.890  10.170   2.521  0.0820 -0.0620 -0.2211
 2852W        W 6450   3.252   8.206  11.711 -0.2191  0.2630 -0.0660
 2853W        W 6451  11.206   9.366   8.729  0.2684 -0.0036  0.0376
 2854W        W 6452   9.354  13.536  13.135 -0.1149  0.1229 -0.0951
 2855W        W 6453   6.781  12.803   5.797  0.0824 -0.1040  0.0735
 2856W        W 6454   0.939   9.619   2.418 -0.1911 -0.1000  0.2054
 2857W        W 6455  10.556  13.654   6.321  0.2006 -0.0740  0.0513
 2858W        W 6456   9.942   8.930   4.519 -0.1884 -0.2436 -0.0981
 2859W        W 6457   2.343   3.805  14.116  0.1826 -0.1288  0.0474
 2860W        W 6458   4.904  14.518  15.614  0.1267 -0.2257 -0.0377
 2861W        W 6459  13.689   5.168   3.314 -0.0956  0.1245 -0.1683
 2862W        W 6460  13.328  11.507  10.486 -0.1835  0.0370  0.2628
 2863W        W 6461   9.152   8.278   3.438  0.2155  0.0455  0.0509
 2864W        W 6462  15.497  16.001  13.361  0.1354  0.0746 -0.2059
 2865W        W 6463   8.530  12.998   3.784  0.2706  0.1669  0.2639
 2866W        W 6464  13.519   4.599   9.774  0.1842  0.0026 -0.0559
 2867W        W 6465   7.632   8.995  14.108 -0.0712  0.0320  0.2435
 2868W        W 6466  10.670   5.888  10.783  0.0034 -0.1067 -0.0335
 2869W        W 6467  14.889   4.159  16.112  0.1067  0.1680 -0.3065
 2870W        W 6468  13.211   4.049  11.044 -0.0216  0.1294 -0.2309
 2871W        W 6469  15.793  14.903   0.558 -0.1536 -0.1280  0.1165
 2872W        W 6470   3.781  11.516   5.655 -0.0454 -0.2160  0.1464
 2873W        W 6471  11.739  15.163   8.894  0.2347  0.0230  0.1810
 2874W        W 6472   5.699  10.716  13.783  0.2649  0.0191  0.1948
 2875W        W 6473  13.113  14.331  14.313  0.1870  0.2083  0.0398
 2876W        W 6474   7.615   2.821  11.639  0.1668  0.2413  0.0272
 2877W        W 6475   4.017   2.936  14.083  0.2834  0.0289 -0.1871
 2878W        W 6476  14.978   5.381   7.508  0.2596  0.0353  0.1652
 2879W        W 6477   1.605   8.983   4.186 -0.1364  0.2024 -0.1258
 2880W        W 6478   5.705   6.752   1.670 -0.0439  0.0092 -0.0567
 2881W        W 6479   5.251   6.955   2.423 -0.1510 -0.2849 -0.2816
 2882W        W 6480  13.205   9.839  15.942 -0.3115  0.0340  0.0396
 2883W        W 6481   7.822  10.737   5.500  0.1409  0.3111  0.1410
 2884W        W 6482   3.333   2.959   8.278 -0.3985 -0.3942 -0.0359
 2885W        W 6483   4.706  11.854   2.884 -0.2570 -0.0383  0.1669
 2886W        W 6484   2.161   9.298  10.060  0.2370  0.1603 -0.0995
 2887W        W 6485   5.333  12.585   7.855  0.0362  0.1982 -0.2089
 2888W        W 6486  16.164   8.073   5.427  0.1703  0.1806 -0.0784
 2889W        W 6487  12.483  15.992  12.840 -0.5484 -0.1377  0.0471
 2890W        W 6488  16.305  15.354   6.238 -0.0460  0.0858 -0.1840
 2891W        W 6489   2.571   6.498   2.078  0.0703 -0.0209 -0.1685
 2892W        W 6490  12.898   4.478  15.193  0.1848  0.0232  0.2253
 2893W        W 6491   3.500  13.927   0.678 -0.0636  0.1682 -0.0355
 2894W        W 6492   3.857   8.148   4.038 -0.0576  0.1060  0.1753
 2895W        W 6493  13.069  10.326   5.282 -0.1959  0.0285  0.0238
 2896W        W 6494   2.187   7.308  15.611  0.0883 -0.0059  0.1545
 2897W        W 6495   7.965   6.325   5.894  0.2971 -0.1171 -0.1921
 2898W        W 6496  14.267   8.479   5.827  0.2157  0.1034  0.1697
 2899W        W 6497   5.710   8.693   0.192 -0.2583 -0.0472 -0.1124
 2900W        W 6498   8.604   8.805  14.226  0.2141  0.0623  0.0197
 2901W        W 6499  13.228  15.770   6.375  0.0815  0.3604 -0.0054
 2902W        W 6500   8.827  15.199  13.977  0.1324  0.3503 -0.0385
 2903W        W 6501   3.788   9.450  15.416  0.0649 -0.3349 -0.0305
 2904W        W 6502  11.630   6.066   9.217  0.0012 -0.0772 -0.1637
 2905W        W 6503  12.583  11.112  11.443  0.1733  0.1866 -0.4725
 2906W        W 6504   6.999   7.737   5.283  0.2033 -0.0296 -0.1367
 2907W        W 6505   9.472  12.258   8.430 -0.0758 -0.0124  0.2090
 2908W        W 6506  11.662   3.872   7.601 -0.0188 -0.3210 -0.3428
 2909W        W 6507  14.985  14.002  14.846 -0.0177  0.0440  0.0664
 2910W        W 6508   3.846   4.963   6.580 -0.0404  0.1478 -0.2908
 2911W        W 6509  11.428   0.142   4.379  0.0405  0.1470  0.1017
 2912W        W 6510   1.681   7.443   4.218  0.1183 -0.0621  0.3236
 2913W        W 6511  10.366  14.956   6.212 -0.1579  0.1027 -0.0248
 2914W        W 6512   1.536   3.310   9.769 -0.4171  0.1312  0.0036
 2915W        W 6513  11.773   8.469   3.286 -0.0678  0.0054  0.1253
 2916W        W 6514   1.055   0.807   3.942  0.4060  0.1312  0.0945
 2917W        W 6515   4.971  13.078  15.362  0.3213  0.3281 -0.1117
 2918W        W 6516  14.871   7.971  10.107  0.0604 -0.0632  0.1071
 2919W        W 6517   1.675   1.372  12.097  0.1797  0.1378  0.2221
 2920W        W 6518   6.478  11.891  11.355  0.0945 -0.0901  0.0689
 2921W        W 6519   0.974   1.138  11.034  0.2730 -0.1884  0.0403
 2922W        W 6520   6.390  15.246  10.234 -0.0489 -0.2006  0.0064
 2923W        W 6521  14.606  15.024   9.284 -0.1976 -0.3123 -0.0018
 2924W        W 6522   7.791   6.800   0.428  0.0668 -0.0604  0.2954
 2925W        W 6523  15.723   0.052   2.939 -0.1471 -0.0208  0.2098
 2926W        W 6524  12.843   2.944   2.083 -0.2002 -0.4697 -0.1763
 2927W        W 6525  13.501  15.802   6.805  0.1640 -0.1139 -0.3271
 2928W        W 6526   8.249  14.934   8.409 -0.0425  0.2291  0.0985
 2929W        W 6527   6.715  14.625   2.571  0.0596 -0.1150 -0.4027
 2930W        W 6528   9.313   1.699  15.770 -0.1766  0.1889 -0.2016
 2931W        W 6529  12.706   2.164  13.171  0.0487 -0.0047  0.0345
 2932W        W 6530   1.735  11.531   6.755  0.0676 -0.2238  0.1021
 2933W        W 6531  12.072  13.339  10.186  0.0182 -0.1837  0.0515
 2934W        W 6532   4.512   6.721   3.165 -0.2419  0.0151  0.2550
 2935W        W 6533  10.853  13.536  15.089  0.0808  0.1999 -0.1473
 2936W        W 6534  12.405  10.658  11.677  0.2142 -0.1344  0.1539
 2937W        W 6535  12.369  13.582   6.069  0.4452  0.0381 -0.3809
 2938W        W 6536  11.482   6.040   1.456 -0.1045 -0.1828 -0.2474
 2939W        W 6537   1.938   3.296   5.177 -0.0151 -0.1209 -0.0131
 2940W        W 6538   7.966  14.025   1.528 -0.2548  0.0854 -0.0334
 2941W        W 6539  11.578   9.576  15.474  0.5944 -0.1831  0.2582
 2942W        W 6540  13.759   2.326   9.735  0.5677 -0.0032 -0.1067
 2943W        W 6541   7.530   7.446   8.458  0.2366 -0.1635  0.0748
 2944W        W 6542   4.706  13.640  15.074 -0.2044  0.3367  0.1717
 2945W        W 6543  11.745   1.639   1.625  0.2946 -0.3918 -0.1277
 2946W        W 6544   6.195  12.685   6.765 -0.0516 -0.1109 -0.3174
 2947W        W 6545   8.569   9.713   5.596  0.0721 -0.1558 -0.2711
 2948W        W 6546  10.977   3.133   7.867 -0.1580  0.0702 -0.0197
 2949W        W 6547  15.502  14.227  12.560  0.0579  0.0992 -0.3257
 2950W        W 6548   6.818   9.005  15.109  0.2628  0.1600  0.0187
 2951W        W 6549   0.782  13.060   9.386 -0.2156  0.1251 -0.1363
 2952W        W 6550   0.221   8.187  10.326 -0.1674  0.2289  0.1404
 2953W        W 6551   0.970   6.485  12.336  0.0278 -0.1661 -0.2450
 2954W        W 6552   5.623  12.192  12.915 -0.1846  0.0304 -0.1002
 2955W        W 6553   7.550   7.344   1.658  0.1675 -0.2962 -0.0091
 2956W        W 6554   7.159  14.279  11.166 -0.0983  0.2271  0.1111
 2957W        W 6555  13.908  16.003   3.777  0.0509 -0.0154 -0.1668
 2958W        W 6556   6.804   2.324   5.171  0.0440 -0.0510  0.0354
 2959W        W 6557  10.058  13.873   6.441 -0.1801  0.1696 -0.1561
 2960W        W 6558   8.805   2.346   8.716  0.0038  0.2882 -0.1835
 2961W        W 6559  13.131   5.055   1.444  0.3848  0.0327 -0.1408
 2962W        W 6560  13.803   1.924   6.090 -0.0570 -0.1629  0.1094
 2963W        W 6561   6.836   8.912  10.655 -0.0070 -0.0494 -0.3506
 2964W        W 6562   7.154   7.372   3.944 -0.0088 -0.3642 -0.1832
 2965W        W 6563  10.326   4.169  10.161  0.1854 -0.1930  0.0905
 2966W        W 6564  11.922   3.663  11.951 -0.1070  0.0364  0.0182
 2967W        W 6565   7.346  12.411  14.685  0.3981 -0.0519  0.0153
 2968W        W 6566   7.327  10.926  12.780 -0.0228  0.2591  0.1488
 2969W        W 6567  14.968   5.836  16.019  0.5194  0.2643  0.2012
 2970W        W 6568   7.800  14.104   9.530  0.1647 -0.1729  0.5291
 2971W        W 6569   7.896  11.630  10.899  0.2144 -0.1512 -0.0509
 2972W        W 6570  11.049   2.296  14.061 -0.3961 -0.0686  0.0181
 2973W        W 6571   0.420   7.212  12.376  0.1542 -0.0125 -0.0762
 2974W        W 6572   6.530  10.013   7.535 -0.2202  0.0771  0.1207
 2975W        W 6573  10.536   1.468   1.959 -0.1923 -0.3085  0.2063
 2976W        W 6574  12.933   8.016   2.768  0.1097 -0.0124 -0.0986
 2977W        W 6575  13.340   0.317   4.598  0.1415  0.0910 -0.1824
 2978W        W 6576   3.339   7.343  10.037  0.1009 -0.1231  0.0181
 2979W        W 6577   0.310   8.510   0.599 -0.5545  0.1092  0.0409
 2980W        W 6578   0.611   0.160  15.158  0.0112 -0.2984 -0.3299
 2981W        W 6579   9.935  11.841  14.989  0.2111 -0.0005 -0.4075
 2982W        W 6580   1.769   7.590  13.044 -0.0440 -0.2061 -0.1681
 2983W        W 6581   0.316  10.933   8.791 -0.0615 -0.0557  0.0280
 2984W        W 6582   0.521  16.086  15.957  0.1497 -0.0871  0.0826
 2985W        W 6583  10.990  11.963   1.399 -0.0688 -0.1081  0.1506
 2986W        W 6584  12.014   8.755   8.591 -0.0534  0.1591 -0.2963
 2987W        W 6585  16.250  10.920   7.963  0.1297  0.0050  0.0237
 2988W        W 6586   2.176  12.115   8.838  0.3730  0.2840  0.0992
 2989W        W 6587   7.583   6.403  10.885  0.0099 -0.2160  0.4465
 2990W        W 6588   5.457   1.152  15.935  0.0746  0.1177  0.0605
 2991W        W 6589   9.399   5.772   6.359 -0.0434 -0.2612  0.1341
 2992W        W 6590   3.467   3.740  13.986 -0.1869 -0.1047  0.0961
 2993W        W 6591   2.289   7.917   9.370  0.0859  0.2359  0.1044
 2994W        W 6592  12.232   0.528   9.941 -0.1960  0.0617  0.0854
 2995W        W 6593  11.466   4.879  11.142  0.0640  0.2078  0.2286
 2996W        W 6594   0.717   2.642  10.327 -0.1280  0.2427 -0.0332
 2997W        W 6595   9.803  11.269   4.365 -0.2017 -0.3821 -0.3165
 2998W        W 6596   4.406   5.234   0.710  0.0459 -0.0433 -0.2261
 2999W        W 6597   9.164   0.060   7.206  0.1658  0.1100  0.2094
 3000W        W 6598  11.721  12.578  14.024  0.1681 -0.2066 -0.1235
 3001W        W 6599   9.482   6.048   9.867 -0.0266  0.0892 -0.2803
 3002W        W 6600   0.280   2.350  15.744 -0.2365  0.0571  0.0649
 3003W        W 6601   7.207   1.860  13.184  0.1341 -0.0523 -0.3471
 3004W        W 6602  12.068   8.000  12.303 -0.2243  0.1699 -0.1167
 3005W        W 6603  11.787   2.381   5.573 -0.1658  0.2071  0.0464
 3006W        W 6604   0.786   4.787  10.801  0.0091 -0.2738 -0.2172
 3007W        W 6605   1.553   3.359   1.875  0.1239  0.2072 -0.0295
 3008W        W 6606   9.789   3.216  11.900 -0.1774  0.3602 -0.1189
 3009W        W 6607   7.394  11.804   2.857  0.1064  0.0807 -0.0188
 3010W        W 6608   7.497   8.364   7.871  0.1280  0.2855 -0.0853
 3011W        W 6609  15.197  11.875   4.267 -0.2163 -0.1857 -0.0490
 3012W        W 6610   0.776  10.697   0.090 -0.3012 -0.3823 -0.3212
 3013W        W 6611   4.253   2.376   6.312  0.2936  0.0725  0.1886
 3014W        W 6612  15.354   4.785   4.324  0.0308  0.2748  0.0618
 3015W        W 6613   4.808   2.670   6.045 -0.4016  0.0783  0.0083
 3016W        W 6614  12.176   6.849  10.360  0.1576 -0.1546 -0.3036
 3017W        W 6615  13.112   0.187  12.528 -0.0321  0.0026 -0.3724
 3018W        W 6616  13.333  15.830   1.242 -0.2018 -0.0997  0.0662
 3019W        W 6617  15.088   9.171   1.848 -0.1435 -0.2343  0.1317
 3020W        W 6618   9.907  11.642   0.924 -0.0797  0.0907  0.2838
 3021W        W 6619   0.933   9.078   3.110 -0.4427 -0.0547  0.0677
 3022W        W 6620   7.803   7.552  11.014 -0.3684 -0.1952  0.0801
 3023W        W 6621  14.496  14.876   5.370 -0.1830  0.2881 -0.0372
 3024W        W 6622  15.617   0.012   5.718  0.1592 -0.1986 -0.3728
 3025W        W 6623  10.587   2.593  11.505 -0.0858 -0.0006 -0.4157
 3026W        W 6624   3.487   7.138   2.520 -0.0781 -0.0356 -0.2264
 3027W        W 6625   0.669   2.332   1.388 -0.0879  0.1045 -0.0043
 3028W        W 6626  11.063   9.699   3.979 -0.1086 -0.0389  0.1623
 3029W        W 6627   5.413   4.741  10.427 -0.1202 -0.0444 -0.0733
 3030W        W 6628   9.499  11.536   3.388 -0.1506 -0.0543 -0.0544
 3031W        W 6629   9.333   5.274  10.167  0.0658 -0.2267 -0.0911
 3032W        W 6630  12.110  14.803  12.410  0.0288 -0.0481  0.0875
 3033W        W 6631  14.380   9.583   5.441  0.2508  0.2060  0.2790
 3034W        W 6632  11.980   2.585   8.603 -0.1497  0.0869  0.2357
 3035W        W 6633   8.028  12.521  15.439 -0.0081  0.2978 -0.1107
 3036W        W 6634  12.567  11.211   6.745 -0.0475 -0.1694 -0.0071
 3037W        W 6635  14.705   7.800  12.021 -0.2040 -0.2672 -0.1005
 3038W        W 6636   6.041  12.604   2.655  0.1368 -0.0916 -0.1312
 3039W        W 6637   7.631   9.524   1.279 -0.3786  0.1183 -0.3315
 3040W        W 6638   5.276  14.637  10.384  0.3239  0.5287 -0.2095
 3041W        W 6639  16.308  10.057  11.365 -0.0589 -0.3298 -0.0149
 3042W        W 6640  12.284   5.401  10.773 -0.1038  0.3231  0.0461
 3043W        W 6641   3.782  13.738   3.235 -0.0138  0.2022  0.2914
 3044W        W 6642   0.687  15.359   2.736 -0.1116 -0.2347 -0.0753
 3045W        W 6643   9.346  15.957  15.919 -0.0972  0.1670 -0.0698
 3046W        W 6644   4.049   1.666   1.597 -0.0204 -0.0771  0.2274
 3047W        W 6645  14.481   0.760  10.068 -0.1812 -0.0093  0.0874
 3048W        W 6646   2.078   7.419  14.423 -0.2841 -0.0845 -0.3267
 3049W        W 6647   2.011   9.453   7.037  0.1967 -0.0017  0.2095
 3050W        W 6648   6.548   9.080  13.330  0.2922  0.0424 -0.3212
 3051W        W 6649   7.201  11.047   3.351 -0.1138 -0.0475 -0.2320
 3052W        W 6650   7.470   4.364   3.300 -0.4723  0.2158 -0.0953
 3053W        W 6651  11.482   7.560  10.393 -0.0891  0.1320 -0.2735
 3054W        W 6652   6.232   7.168   8.117  0.1039 -0.1821  0.1026
 3055W        W 6653   2.989   8.360   9.258 -0.1508  0.2298 -0.1038
 3056W        W 6654  16.144   9.840   1.436 -0.1131 -0.0679  0.1530
 3057W        W 6655  13.758   1.434   0.058  0.0108 -0.0311  0.1675
 3058W        W 6656  13.496  13.604   9.734  0.0780  0.2414 -0.0663
 3059W        W 6657  16.169  10.069   8.063  0.1396  0.0482 -0.3104
 3060W        W 6658   1.546   5.088   4.911 -0.2090 -0.1658 -0.1169
 3061W        W 6659   3.351   6.566   7.661 -0.0179  0.1149 -0.0048
 3062W        W 6660   3.836   1.045   7.509 -0.1638 -0.2235  0.1763
 3063W        W 6661   6.567   2.706  13.680  0.1179  0.0925  0.1101
 3064W        W 6662  12.396   8.040   7.144  0.4019  0.0592  0.1395
 3065W        W 6663   9.228  14.905   8.025 -0.2444 -0.1498  0.0665
 3066W        W 6664  15.367   9.391   7.426  0.3763 -0.1119  0.0505
 3067W        W 6665   8.406  14.193   2.356  0.1341  0.0689 -0.1598
 3068W        W 6666  12.403   6.217   4.565  0.1487  0.2607 -0.1024
 3069W        W 6667   5.375   3.466   9.194 -0.2980 -0.1440 -0.0884
 3070W        W 6668  14.566   2.378   9.775 -0.0758 -0.0210 -0.1283
 3071W        W 6669   6.529   0.307   4.203  0.0474 -0.1173  0.3932
 3072W        W 6670  11.968  10.309  12.258 -0.0527  0.0701  0.1401
 3073W        W 6671   4.158   3.500   8.245  0.0838 -0.1003 -0.2198
 3074W        W 6672  10.105   4.927   2.514 -0.0787  0.0245 -0.4290
 3075W        W 6673  12.483   4.639   6.736  0.0714  0.4807  0.0609
 3076W        W 6674  13.042   9.600   4.144  0.0093 -0.1046  0.0383
 3077W        W 6675   3.010   3.989   6.168 -0.1722 -0.1566  0.0659
 3078W        W 6676  12.100  14.190  11.299  0.1084 -0.1252  0.3522
 3079W        W 6677   1.908   6.214  13.688  0.0413 -0.3621 -0.1144
 3080W        W 6678   9.116   8.848   8.121  0.2283 -0.0053  0.0656
 3081W        W 6679   2.123   6.797  15.030  0.0325 -0.0053  0.0897
 3082W        W 6680  13.930  11.437   6.585 -0.0015  0.2781 -0.1277
 3083W        W 6681  13.386  15.086   8.893 -0.2262 -0.1189 -0.0701
 3084W        W 6682   7.977   4.974  16.273 -0.1089  0.0461  0.3621
 3085W        W 6683   6.531   2.903   3.421  0.2367  0.1029 -0.1263
 3086W        W 6684  15.215  14.936   5.481  0.1504 -0.0979  0.0845
 3087W        W 6685   1.025  13.993   7.123  0.4618 -0.1201  0.2676
 3088W        W 6686  10.577   8.536   9.619  0.0960  0.0139 -0.0223
 3089W        W 6687   8.937  15.122   9.360  0.0537  0.1589 -0.2518
 3090W        W 6688   8.102   6.811   3.745 -0.1077 -0.1487 -0.0660
 3091W        W 6689  15.272   2.866  10.212 -0.1022  0.1551 -0.0376
 3092W        W 6690  14.966  14.149   7.974  0.1735 -0.0371 -0.0621
 3093W        W 6691   6.605  13.601   4.181 -0.0716  0.1726 -0.3083
 3094W        W 6692   5.582  11.543   8.956 -0.1693 -0.1734 -0.1330
 3095W        W 6693  14.669  10.381  10.564  0.0689 -0.1127  0.2762
 3096W        W 6694  12.317  14.477   7.315 -0.1002  0.0760 -0.0543
 3097W        W 6695   6.868   0.703   4.125 -0.0747 -0.0326 -0.0980
 3098W        W 6696   1.711   5.116  11.900 -0.1035  0.0672 -0.2153
 3099W        W 6697   0.409   2.385  11.242 -0.1241 -0.0511 -0.1066
 3100W        W 6698  12.615   5.666   1.718  0.1484 -0.1181  0.1690
 3101W        W 6699   0.955  13.042  12.647  0.1478  0.0999 -0.0438
 3102W        W 6700   8.540   0.629   6.077  0.1024 -0.1912  0.2607
 3103W        W 6701   0.460  15.984   0.916  0.1279 -0.1054 -0.3790
 3104W        W 6702   9.529  14.815   4.872 -0.3115 -0.1391 -0.1989
 3105W        W 6703  14.067   0.691   6.558 -0.0875 -0.3370 -0.1320
 3106W        W 6704   2.960  16.143  11.859  0.1095  0.2908  0.1696
 3107W        W 6705   4.396   7.867   2.240  0.0321 -0.1577 -0.0101
 3108W        W 6706  13.107  10.978   1.976  0.2228 -0.0438  0.0089
 3109W        W 6707   5.337   6.164   5.737  0.0777  0.0915  0.0205
 3110W        W 6708  10.143   1.824   3.059 -0.0199  0.0951 -0.0194
 3111W        W 6709   3.698   9.039   2.312 -0.1902  0.2313  0.2152
 3112W        W 6710   1.043  11.307  10.582  0.3736  0.5488  0.3122
 3113W        W 6711  11.081  15.421   1.071 -0.0923  0.0871 -0.3019
 3114W        W 6712   0.308   9.588   5.489 -0.0614 -0.1223 -0.1458
 3115W        W 6713   6.115   0.035  15.695 -0.0673 -0.0003 -0.0148
 3116W        W 6714   5.927  14.728   9.427  0.0513 -0.0237  0.1040
 3117W        W 6715  14.612   1.577   3.828  0.0361 -0.0360 -0.1899
 3118W        W 6716   8.967   0.010   2.201 -0.6379  0.4723 -0.0194
 3119W        W 6717  16.288  14.194   5.650  0.2510  0.1518  0.0629
 3120W        W 6718   0.978   0.243   6.025 -0.0118 -0.0660  0.2912
 3121W        W 6719   1.533   0.691   3.836 -0.0726 -0.0031 -0.0232
 3122W        W 6720  10.939  12.915   2.875 -0.0796 -0.2644  0.0448
 3123W        W 6721  14.522   9.648   1.463 -0.1308 -0.0400 -0.2408
 3124W        W 6722   4.070   3.713   1.269 -0.1048 -0.0354  0.0160
 3125W        W 6723   9.618   4.298   4.222  0.2781  0.0721  0.0066
 3126W        W 6724  13.163  10.412   0.562  0.1736  0.1607  0.0794
 3127W        W 6725   0.682  10.799  12.688 -0.0366 -0.1863  0.0630
 3128W        W 6726  10.250   2.803  10.076  0.0585 -0.2017  0.1214
 3129W        W 6727  14.331   0.848   2.434  0.1272 -0.1477  0.2406
 3130W        W 6728   5.747   2.047   8.924  0.0658  0.0159 -0.0130
 3131W        W 6729   5.032   1.353   4.360  0.3867 -0.3608  0.2194
 3132W        W 6730  15.615   8.610   5.655  0.0164 -0.1340 -0.1838
 3133W        W 6731   7.381   4.719   0.265  0.1851 -0.2163 -0.3505
 3134W        W 6732   2.337  15.885   8.169  0.1613  0.1934  0.2537
 3135W        W 6733   8.849  12.619   7.955  0.0783  0.2493 -0.1547
 3136W        W 6734   2.038  12.211  14.028  0.1552  0.1444  0.0208
 3137W        W 6735   9.190  16.261  14.372  0.2427 -0.1042 -0.0563
 3138W        W 6736   7.713   0.066  13.498  0.0884 -0.2256  0.3441
 3139W        W 6737  12.199  14.872  13.298 -0.2124 -0.4000  0.2343
 3140W        W 6738  13.872  11.519  10.529  0.2580 -0.1256 -0.2428
 3141W        W 6739   3.205   4.514  10.171  0.0105 -0.2986  0.1732
 3142W        W 6740   4.927   2.724  11.168  0.2099 -0.0982  0.3737
 3143W        W 6741  11.772  11.902   9.720  0.1215 -0.1144 -0.0360
 3144W        W 6742  12.006   7.210  10.005 -0.3447 -0.0293 -0.0152
 3145W        W 6743   8.084   0.421   6.038 -0.2023 -0.0146 -0.0017
 3146W        W 6744   6.171   8.304   8.468 -0.1853 -0.2839 -0.2345
 3147W        W 6745   4.614  16.061   3.174  0.0491  0.0582 -0.1480
 3148W        W 6746   7.877  10.104   7.084  0.0628 -0.0238 -0.2171
 3149W        W 6747   4.719   4.633  15.796 -0.3802  0.0822  0.1016
 3150W        W 6748   3.952   9.371  12.105  0.2807 -0.0885 -0.3593
 3151W        W 6749  10.282  15.908  10.831  0.0274 -0.0885 -0.0213
 3152W        W 6750  10.876   8.520   2.823  0.4224  0.2793  0.0405
 3153W        W 6751  14.818  12.941  13.013  0.1902 -0.0173 -0.0131
 3154W        W 6752   4.572   4.913   3.494  0.0453 -0.2860 -0.0468
 3155W        W 6753  13.268   3.152  10.048  0.0131  0.2247  0.1974
 3156W        W 6754   1.428   4.326  10.943  0.1277  0.1676  0.0667
 3157W        W 6755   4.862   2.267   8.938 -0.0518 -0.2054 -0.1534
 3158W        W 6756   0.431  10.336   5.901 -0.0218 -0.2839  0.0961
 3159W        W 6757   4.325   4.336  11.846  0.2539 -0.0342 -0.1087
 3160W        W 6758  11.600   9.529   0.469 -0.2419 -0.2343  0.2724
 3161W        W 6759   1.211  14.576  15.303 -0.0417 -0.1830 -0.0063
 3162W        W 6760   2.018   8.205  11.568 -0.0330 -0.0098  0.0876
 3163W        W 6761   2.940  13.858  10.125 -0.1926 -0.1292 -0.0068
 3164W        W 6762   7.544   8.133   3.428 -0.1625 -0.2282  0.2979
 3165W        W 6763   2.449   7.735   9.824  0.0730 -0.0266 -0.0342
 3166W        W 6764  14.544  13.597  11.706  0.0831  0.0142  0.1503
 3167W        W 6765  11.909   8.614   7.726  0.1679 -0.0005 -0.1723
 3168W        W 6766  11.058   6.584  11.887  0.0849  0.1318  0.0506
 3169W        W 6767  15.510   3.275   1.410 -0.1038  0.1821  0.1826
 3170W        W 6768  11.844   4.174   1.696 -0.0351  0.1023  0.0575
 3171W        W 6769   1.667   1.871   0.997  0.0310  0.2569 -0.0406
 3172W        W 6770   1.004  15.559  14.792  0.0265 -0.0905 -0.0208
 3173W        W 6771   1.668   0.988   6.459 -0.1552  0.2236 -0.2316
 3174W        W 6772   5.274   5.194   5.605  0.3240 -0.1521  0.0841
 3175W        W 6773   0.712   5.671  10.275  0.1144  0.0549  0.0418
 3176W        W 6774  12.374  11.936  10.518 -0.0354 -0.2962  0.0168
 3177W        W 6775   3.041   0.647   7.007  0.2376  0.1158 -0.0096
 3178W        W 6776  14.448  12.684   1.883  0.0392  0.1813 -0.2050
 3179W        W 6777  16.338   2.054   4.378  0.0477 -0.0656  0.3367
 3180W        W 6778  15.397   2.771  14.522 -0.0652  0.2243  0.1855
 3181W        W 6779   4.680   6.537   0.883 -0.0227 -0.1234 -0.0700
 3182W        W 6780   8.682   6.691   4.416  0.0609  0.4463 -0.0630
 3183W        W 6781  12.629   3.199  12.945 -0.0238 -0.0424 -0.0816
 3184W        W 6782   1.297   6.730   1.486 -0.0277 -0.0831 -0.0631
 3185W        W 6783   1.187  15.544   1.453  0.2842 -0.0003 -0.1172
 3186W        W 6784   7.870   1.327   2.661 -0.0647 -0.0641  0.3142
 3187W        W 6785   5.131  13.431   1.263 -0.3263  0.0570 -0.0278
 3188W        W 6786  14.184   0.072   3.801  0.2692  0.1132  0.2121
 3189W        W 6787   4.857  13.944   2.552  0.0942  0.1677 -0.1040
 3190W        W 6788  15.446  15.314   0.895  0.0174 -0.3125  0.3019
 3191W        W 6789   3.657   3.838   1.622  0.0982  0.1614 -0.0812
 3192W        W 6790  10.910  15.573   8.359 -0.2477 -0.2332 -0.0935
 3193W        W 6791   4.938   3.658   3.545  0.1103 -0.0786  0.2166
 3194W        W 6792   3.728  12.898  15.901  0.0177  0.2455  0.2439
 3195W        W 6793   9.668   1.584   3.347  0.2629  0.0925 -0.2356
 3196W        W 6794   8.949   1.783   6.162  0.2737 -0.0370  0.0993
 3197W        W 6795   8.794  12.650   6.674 -0.0890 -0.1196  0.2063
 3198W        W 6796   3.268  12.165  15.361  0.3684 -0.2801 -0.2249
 3199W        W 6797  12.451  11.108   5.129 -0.0236 -0.1723  0.1304
 3200W        W 6798   2.189   0.882   5.606 -0.0305 -0.0239 -0.1322
 3201W        W 6799   5.321   5.367  12.983 -0.0756 -0.0303  0.2150
 3202W        W 6800  13.115   9.230   5.888  0.0387 -0.1680  0.4733
 3203W        W 6801   7.239  11.292   3.759 -0.0586 -0.1634 -0.1163
 3204W        W 6802   7.911  13.445   5.716 -0.0096  0.0096 -0.0206
 3205W        W 6803   9.182   1.196  11.726  0.0853 -0.1770 -0.1771
 3206W        W 6804  14.940  15.074   5.044  0.0453 -0.2684  0.1453
 3207W        W 6805   2.119   7.292  15.085  0.0438  0.0727  0.1238
 3208W        W 6806   3.363   7.549  15.020 -0.1093 -0.1303 -0.0229
 3209W        W 6807   8.062   6.624   7.415  0.2636  0.0596  0.3914
 3210W        W 6808   9.230  13.736   6.405 -0.3769  0.1898 -0.1409
 3211W        W 6809  12.659   3.162   8.341  0.0099  0.2494  0.2358
 3212W        W 6810   3.506   5.098  13.621 -0.1488  0.1608  0.1868
 3213W        W 6811  12.915   3.945   2.422 -0.0708 -0.2262  0.0680
 3214W        W 6812  13.528  10.849  11.800  0.1077 -0.3527  0.1436
 3215W        W 6813   3.777   8.015   7.813  0.0192 -0.1336  0.1156
 3216W        W 6814  14.945   3.605   5.155  0.1930  0.0864  0.0410
 3217W        W 6815   3.206   2.774   6.096  0.3264 -0.2432  0.2811
 3218W        W 6816   1.870  10.455   5.456  0.2545  0.0592 -0.0150
 3219W        W 6817  12.864  15.617  15.059  0.1251 -0.0032 -0.1317
 3220W        W 6818   3.790   3.184  10.574 -0.0312 -0.2991 -0.0677
 3221W        W 6819  13.580  11.939   5.668 -0.1758 -0.1008  0.2157
 3222W        W 6820  14.079  14.932   5.124  0.3006 -0.0452 -0.0236
 3223W        W 6821   8.302  11.857   6.422 -0.2348 -0.2338  0.3777
 3224W        W 6822  14.480  15.713   3.410  0.1317  0.0451  0.0872
 3225W        W 6823   4.846   8.354   3.376 -0.0357 -0.1224  0.0825
 3226W        W 6824   0.508   0.153  16.324  0.0188  0.0023 -0.2635
 3227W        W 6825   3.186  10.497   8.883 -0.1488  0.0588  0.2465
 3228W        W 6826   5.061  12.169   1.159  0.0109  0.0011 -0.1122
 3229W        W 6827   6.908  13.582  10.518  0.1405  0.1098  0.1752
 3230W        W 6828   8.954  14.974  15.251 -0.1896  0.3245 -0.3493
 3231W        W 6829   2.323  13.384   3.663  0.0221  0.0162  0.0671
 3232W        W 6830   8.538   7.753   4.748  0.0295  0.1178  0.1296
 3233W        W 6831  11.195  12.479  15.932 -0.0498 -0.0523 -0.1259
 3234W        W 6832   8.404   8.965   3.111 -0.2027  0.0079  0.2687
 3235W        W 6833  15.856   3.127   2.788 -0.1101  0.1822 -0.1643
 3236W        W 6834   8.884   3.871   2.448 -0.2349  0.0759  0.1171
 3237W        W 6835   5.892  12.819  14.133  0.0858 -0.1278  0.0677
 3238W        W 6836   2.510  12.852   5.183 -0.1608  0.2510 -0.2760
 3239W        W 6837   6.410  11.942  14.797  0.0592  0.0134 -0.1932
 3240W        W 6838  11.624   0.588   6.124 -0.4324 -0.2985 -0.0698
 3241W        W 6839   9.572   6.980   0.276  0.2752 -0.2113  0.3367
 3242W        W 6840   3.012  13.078  14.276  0.1160  0.1282 -0.2460
 3243W        W 6841   9.297  11.638   9.514  0.0722  0.1398  0.0939
 3244W        W 6842  10.883   3.088   0.220 -0.1438  0.4084  0.2764
 3245W        W 6843   0.098  14.059   6.231  0.0513  0.2699  0.1853
 3246W        W 6844   9.940  11.179  12.481  0.0937 -0.5197  0.1605
 3247W        W 6845  16.214   9.453  12.535  0.0995  0.0512 -0.2167
 3248W        W 6846  11.164   7.471  14.752  0.3317 -0.2934 -0.0034
 3249W        W 6847   9.467   0.543  11.423  0.2360  0.0772 -0.0619
 3250W        W 6848   9.449  14.419  10.905 -0.0224 -0.2919  0.0169
 3251W        W 6849   8.297   0.159   0.624 -0.0790  0.3148 -0.0128
 3252W        W 6850  11.309   7.064  15.134  0.1008 -0.1121  0.0216
 3253W        W 6851   9.160  15.393   2.422 -0.1554 -0.2443  0.0735
 3254W        W 6852  13.790   6.944   2.740  0.0960 -0.1959 -0.1920
 3255W        W 6853   7.284   2.372   4.983 -0.0792  0.0267  0.2973
 3256W        W 6854  10.554  16.390   6.662 -0.1298 -0.1685  0.0260
 3257W        W 6855   9.037  14.443   1.774 -0.1715  0.0962 -0.1853
 3258W        W 6856   3.923  15.637   7.918  0.2324 -0.2312 -0.0566
 3259W        W 6857   7.780  10.153   0.900 -0.0298 -0.0783 -0.1183
 3260W        W 6858  15.059  12.735   4.577  0.0534  0.2350 -0.1777
 3261W        W 6859   1.473  11.281   4.627 -0.0210 -0.1426 -0.0064
 3262W        W 6860   1.076  13.456   5.880  0.0527  0.0600 -0.1298
 3263W        W 6861  16.173  10.067   6.509  0.2840 -0.2874 -0.0919
 3264W        W 6862   6.140  15.910  13.975  0.2075  0.0921 -0.1515
 3265W        W 6863   4.781   8.758   4.828  0.1260 -0.1300 -0.2614
 3266W        W 6864   5.102   2.371  16.307  0.1438 -0.2071  0.0259
 3267W        W 6865   2.320   4.160  12.564  0.0725 -0.1840  0.2927
 3268W        W 6866   0.054   3.730  12.167 -0.0572 -0.0190  0.3165
 3269W        W 6867   1.597   4.940  14.940 -0.1125  0.0759 -0.2158
 3270W        W 6868   7.957   8.253   2.551  0.0112 -0.1110  0.0868
 3271W        W 6869   1.017   1.972   1.445  0.2380 -0.3025  0.1436
 3272W        W 6870   3.456   2.535  13.618 -0.0324  0.2234 -0.0078
 3273W        W 6871   9.372  14.911   9.288 -0.3712  0.0162  0.0621
 3274W        W 6872   6.521  13.283   0.368 -0.1279 -0.1948 -0.0670
 3275W        W 6873  13.528  11.878  13.197 -0.0960  0.2012  0.0900
 3276W        W 6874   7.812   3.832   7.186  0.0667  0.2524  0.0584
 3277W        W 6875  13.966   1.454  11.310  0.2302 -0.0794  0.1509
 3278W        W 6876   0.582   8.416   1.009  0.0917  0.0015  0.0835
 3279W        W 6877  10.666   8.643  15.424 -0.4188 -0.2956 -0.3188
 3280W        W 6878   8.418  14.142  13.120  0.1296  0.1570  0.0639
 3281W        W 6879   6.012   8.913   4.998 -0.1763  0.2357 -0.1462
 3282W        W 6880  15.414   7.969  10.071 -0.1814  0.0594  0.2096
 3283W        W 6881  12.890  15.946  14.305  0.1557 -0.0473 -0.1781
 3284W        W 6882   7.700  11.518   3.655 -0.0848 -0.0720 -0.4187
 3285W        W 6883  13.671   8.192   2.269  0.2030 -0.0186  0.1326
 3286W        W 6884   7.094   7.686   4.820  0.3876  0.0843 -0.1277
 3287W        W 6885  14.673   0.667  13.214  0.1354 -0.0060  0.1016
 3288W        W 6886   3.346   7.071   9.619  0.1003 -0.1237 -0.0662
 3289W        W 6887  12.932   1.357   1.592 -0.0438 -0.2169  0.0228
 3290W        W 6888   4.593   2.804  12.956  0.0128 -0.1483 -0.0235
 3291W        W 6889   4.414   1.147  14.986 -0.0599  0.3308 -0.0678
 3292W        W 6890   8.608   1.964   9.027 -0.0281  0.1536  0.4019
 3293W        W 6891   8.572  14.442   7.211  0.3757 -0.0451 -0.0982
 3294W        W 6892  11.297   3.043   9.057  0.1522 -0.1473  0.1528
 3295W        W 6893   8.530   5.518   9.060  0.1932  0.0287 -0.0443
 3296W        W 6894   1.609   6.555  13.542  0.0428  0.0835 -0.1811
 3297W        W 6895   2.125  11.021  11.724 -0.1269  0.0151 -0.0340
 3298W        W 6896   1.505  10.490   9.605  0.2137 -0.3120 -0.2141
 3299W        W 6897   4.513   3.082  11.278  0.0865  0.3131 -0.0052
 3300W        W 6898  10.255   2.503  16.173 -0.2334 -0.1047 -0.1471
 3301W        W 6899   9.492  15.783   2.599 -0.1542  0.2260 -0.0777
 3302W        W 6900   1.592   3.768   2.832  0.0922  0.1648 -0.0243
 3303W        W 6901  14.541  15.192  13.075 -0.0697  0.0713 -0.1747
 3304W        W 6902   7.117   0.217   3.953  0.2154  0.2132  0.0010
 3305W        W 6903  12.620   0.979  14.935 -0.0209  0.0520  0.0290
 3306W        W 6904  14.951   9.689   7.247  0.1203 -0.1515  0.0842
 3307W        W 6905   9.875   7.872  13.654 -0.3045 -0.0534 -0.1226
 3308W        W 6906   8.737  13.282   8.510 -0.0452 -0.1491 -0.2893
 3309W        W 6907   2.411  11.616   3.842  0.3586 -0.1184 -0.2813
 3310W        W 6908   7.046   2.689  14.428 -0.0010  0.1862  0.2262
 3311W        W 6909   7.299   4.564  10.339  0.1504  0.0507  0.2669
 3312W        W 6910  12.841  10.988   8.651 -0.1150  0.2490 -0.1040
 3313W        W 6911   6.374  15.916   7.819  0.0167 -0.0081  0.0411
 3314W        W 6912   8.392  15.495   4.599 -0.2019  0.2204 -0.5200
 3315W        W 6913   4.870   8.729   0.672  0.0748  0.1766  0.0378
 3316W        W 6914   6.146   6.512   6.295  0.1986  0.0854  0.2164
 3317W        W 6915  10.960   7.647  12.912  0.0510  0.4214 -0.3130
 3318W        W 6916  12.304   6.045   0.478  0.2286  0.0902  0.2211
 3319W        W 6917  13.490   2.100  10.767  0.0866  0.0233  0.2625
 3320W        W 6918  15.240   5.785   2.896 -0.2809  0.0570 -0.1443
 3321W        W 6919   8.578   5.102  11.558  0.1245 -0.1793  0.1166
 3322W        W 6920   3.109   4.639   0.361  0.0321 -0.1488  0.1008
 3323W        W 6921  13.565   6.999  10.011  0.2872 -0.0694 -0.0564
 3324W        W 6922  14.188   7.178  13.384  0.2073 -0.1778  0.0974
 3325W        W 6923   1.638   0.640  11.167 -0.1815 -0.0222  0.1730
 3326W        W 6924   5.263  14.496   4.899  0.0263 -0.3725  0.3494
 3327W        W 6925  14.465  14.221  12.848 -0.0979  0.0519 -0.1632
 3328W        W 6926  12.713   9.614  12.449 -0.0000 -0.1961 -0.3318
 3329W        W 6927   2.879   3.861   6.633  0.1066  0.1139 -0.2696
 3330W        W 6928  13.903  10.922   5.355 -0.2035  0.1727 -0.0205
 3331W        W 6929  11.440   1.987   6.764 -0.1506  0.1792 -0.3627
 3332W        W 6930   6.261   0.588  10.289 -0.1708  0.1903 -0.1201
 3333W        W 6931  16.025  10.864  14.160 -0.1030 -0.1759 -0.1277
 3334W        W 6932  10.319   9.571  15.818  0.0128 -0.0708 -0.2017
 3335W        W 6933   6.097   8.087   1.673 -0.2075  0.3025  0.0977
 3336W        W 6934   5.165  16.232  14.070 -0.1398 -0.1264  0.0372
 3337W        W 6935  15.624   4.406   0.809 -0.0722  0.2050  0.0182
 3338W        W 6936  15.871  11.346   2.989  0.0620  0.3182  0.0360
 3339W        W 6937  15.747  13.776   4.622  0.1809  0.3241 -0.0767
 3340W        W 6938   7.860  12.622  13.722 -0.3603 -0.2087  0.1665
 3341W        W 6939   6.293  15.203  11.825  0.0734  0.1086  0.0689
 3342W        W 6940   6.536  12.243   4.878  0.0825  0.1895 -0.0390
 3343W        W 6941   0.273   7.689  11.262 -0.3324  0.0997 -0.1409
 3344W        W 6942  13.375   4.627  11.670  0.0914  0.0428  0.1006
 3345W        W 6943  13.763   5.833   4.194 -0.1622 -0.2755  0.0252
 3346W        W 6944   4.779   6.792   2.499 -0.2358  0.0308 -0.0793
 3347W        W 6945  10.891   0.830  10.828 -0.3839 -0.0131 -0.0101
 3348W        W 6946  15.280   6.083   2.473 -0.0278  0.3751  0.0702
 3349W        W 6947   6.535  10.433   0.858 -0.1766  0.2586  0.0737
 3350W        W 6948   2.007   0.238   8.732  0.3405 -0.1588 -0.1253
 3351W        W 6949  13.744   3.308   1.578 -0.4547  0.0445  0.2831
 3352W        W 6950   0.307  11.819  12.237 -0.0339 -0.0493  0.1322
 3353W        W 6951   1.167   8.021   1.661  0.0679 -0.0840  0.1062
 3354W        W 6952   0.268   6.117   5.922 -0.3156  0.1399  0.0263
 3355W        W 6953  14.507   9.790   8.858 -0.2385  0.0364  0.0658
 3356W        W 6954  14.481   4.240   2.413 -0.1971  0.0603 -0.2296
 3357W        W 6955   1.372  14.426   9.493 -0.1390  0.2401  0.0575
 3358W        W 6956   3.582   8.222   0.824 -0.3302 -0.0509  0.3590
 3359W        W 6957  10.532   1.090  13.657 -0.1864 -0.0504  0.0227
 3360W        W 6958   1.897  12.070  11.078 -0.0329  0.0459  0.1607
 3361W        W 6959   0.530  12.227   1.401  0.2646 -0.0031  0.3726
 3362W        W 6960   2.528   9.061  10.330  0.0389  0.1204 -0.2624
 3363W        W 6961  16.123  15.495   8.805 -0.0289 -0.0555  0.1769
 3364W        W 6962  14.222  12.302   3.624 -0.0772 -0.1182  0.2096
 3365W        W 6963   9.037   6.458   9.025 -0.1229 -0.0329  0.2086
 3366W        W 6964  14.746   1.379   9.333 -0.1480 -0.0701 -0.2121
 3367W        W 6965   1.600   2.647   3.634  0.0459  0.0717  0.3342
 3368W        W 6966  10.132   7.175   3.393  0.1772  0.1536 -0.0137
 3369W        W 6967   6.354   7.204  13.741 -0.1772 -0.0329 -0.1291
 3370W        W 6968  11.512  14.781   1.428 -0.1109  0.1315 -0.3231
 3371W        W 6969   7.557  15.647   6.124 -0.0693 -0.0231 -0.0033
 3372W        W 6970  13.912   7.561  13.645  0.2491 -0.1274  0.0741
 3373W        W 6971  12.313   5.069  14.572 -0.3005 -0.0872 -0.0481
 3374W        W 6972   7.021   2.612  15.466  0.0178  0.0052  0.0350
 3375W        W 6973   9.943   2.968  12.417  0.0795 -0.0431  0.2081
 3376W        W 6974  11.926   0.738   5.070  0.0953 -0.1219  0.1312
 3377W        W 6975   8.975  14.864   8.909 -0.1104 -0.2473  0.1577
 3378W        W 6976   3.172   7.004   8.518 -0.0139 -0.1963  0.0376
 3379W        W 6977   8.650  14.531   6.696  0.2534 -0.0632 -0.1821
 3380W        W 6978   5.030  15.201   3.153 -0.2839  0.1170  0.0391
 3381W        W 6979   7.063   5.869   3.828 -0.1035  0.1729 -0.1583
 3382W        W 6980   7.505   7.283   9.044  0.0825 -0.2154 -0.3487
 3383W        W 6981  15.220   3.412  13.106  0.0638 -0.4455  0.0660
 3384W        W 6982   5.727   1.105   9.869  0.1501  0.0540  0.1883
 3385W        W 6983   7.583   7.187   4.139 -0.0092 -0.0892 -0.0361
 3386W        W 6984  15.744   4.711   3.988  0.1721 -0.0961  0.0359
 3387W        W 6985   6.804   6.066   8.505 -0.0981 -0.0755  0.2093
 3388W        W 6986   6.610  10.228  16.392  0.1155  0.0694  0.0526
 3389W        W 6987   6.731   2.488   6.104 -0.1413  0.3029 -0.1800
 3390W        W 6988   3.352   9.544  13.924  0.1235  0.0963 -0.0872
 3391W        W 6989   1.175   1.676  13.873 -0.1524 -0.0704  0.2856
 3392W        W 6990   1.957  10.572  15.963 -0.2244  0.3135 -0.0554
 3393W        W 6991  13.813  14.612   2.983 -0.0659 -0.2334  0.0582
 3394W        W 6992   1.335   3.427  12.429 -0.0811  0.2150 -0.1097
 3395W        W 6993  14.599   9.211   9.435  0.3786  0.0474  0.1463
 3396W        W 6994  14.526   2.938   8.812 -0.1539 -0.0438  0.0699
 3397W        W 6995  12.872   2.002   2.152 -0.2723  0.3635  0.1143
 3398W        W 6996   7.248   4.807   3.320 -0.2018 -0.1024  0.2112
 3399W        W 6997   6.286  12.498  12.345 -0.0545  0.0601  0.0460
 3400W        W 6998  12.868   9.872   1.656 -0.0895 -0.1696 -0.0585
 3401W        W 6999   6.134  14.016   6.227 -0.0989  0.0481  0.0613
 3402W        W 7000   2.833   6.477  15.975 -0.1401  0.2566  0.1384
 3403W        W 7001  11.081   0.513  15.003  0.0890 -0.4302  0.0554
 3404W        W 7002   4.930   4.734   8.960  0.0195  0.0294  0.0404
 3405W        W 7003  11.941  10.129   8.789  0.1303  0.1316 -0.2132
 3406W        W 7004   0.545  11.175   2.313  0.4342  0.0974  0.2908
 3407W        W 7005   0.970   7.713   5.215 -0.0086  0.2122 -0.2285
 3408W        W 7006  12.926   6.311  12.086  0.1562 -0.0244 -0.0924
 3409W        W 7007  11.525   5.626   9.712 -0.0697 -0.1765 -0.0626
 3410W        W 7008  12.716  10.260   0.279  0.1406  0.0538 -0.0594
 3411W        W 7009  15.967  15.071  10.583 -0.1828 -0.3138 -0.0157
 3412W        W 7010  13.081  16.276   8.504 -0.1151  0.2171 -0.3024
 3413W        W 7011  13.345   8.558   2.281 -0.0139  0.0725  0.2973
 3414W        W 7012   9.198   2.325  14.929  0.0028  0.3731  0.0752
 3415W        W 7013  16.198   7.174  14.256 -0.0741  0.2731  0.3203
 3416W        W 7014  10.362  15.649   7.888 -0.0028 -0.1772  0.3164
 3417W        W 7015   7.139  14.278   8.894 -0.2974 -0.0302 -0.1732
 3418W        W 7016  15.466   5.944   3.503  0.1208  0.2003  0.1876
 3419W        W 7017  12.308   3.473  16.310  0.1753  0.0938  0.1436
 3420W        W 7018   8.944   3.725   5.404 -0.0881 -0.0919  0.4284
 3421W        W 7019   9.076  14.993  11.323  0.1168 -0.0310  0.3621
 3422W        W 7020   1.421   1.410   7.383  0.0246 -0.1235  0.0188
 3423W        W 7021   2.761   8.139   5.839 -0.2713 -0.1607  0.0314
 3424W        W 7022  10.270  13.728   4.258 -0.1728 -0.1330  0.0653
 3425W        W 7023  12.626   3.642   8.298 -0.0717 -0.1596  0.2042
 3426W        W 7024   9.473   9.211   6.679  0.2746 -0.0326  0.0088
 3427W        W 7025   4.175   6.698  15.358 -0.0045  0.0457  0.0223
 3428W        W 7026   2.805  14.571  15.691  0.0986  0.1554 -0.1139
 3429W        W 7027  16.092   6.643  13.446  0.0585  0.4760  0.0755
 3430W        W 7028   7.760   8.069  15.098 -0.1754 -0.0106  0.2180
 3431W        W 7029   7.734   1.103   3.158 -0.1776 -0.2305  0.2300
 3432W        W 7030  12.508   6.745  13.412  0.0458  0.0347 -0.2978
 3433W        W 7031  10.506  10.193   5.061 -0.2123  0.0371 -0.0028
 3434W        W 7032   2.186  11.098   7.817 -0.0182 -0.6326  0.1845
 3435W        W 7033  12.116  14.485  10.644 -0.1922 -0.2494  0.1646
 3436W        W 7034   8.157   8.118  10.862 -0.2681 -0.1325 -0.1416
 3437W        W 7035  10.456   9.754  14.658 -0.2822 -0.2254  0.1130
 3438W        W 7036   6.660   8.021   0.994 -0.2954 -0.0711  0.0219
 3439W        W 7037   3.221   9.871   0.259  0.2430  0.1713  0.0715
 3440W        W 7038  11.232  12.169  14.946  0.0404  0.3520 -0.2843
 3441W        W 7039   7.876   6.038   4.867 -0.0695 -0.0189  0.0418
 3442W        W 7040  10.429   0.064   4.919  0.4532 -0.0253  0.0237
 3443W        W 7041  12.660  13.556  10.906 -0.0634  0.1377  0.0391
 3444W        W 7042   2.097  14.143  13.611  0.1623  0.2508 -0.1555
 3445W        W 7043  13.509   6.329  11.924 -0.1304  0.1385 -0.0084
 3446W        W 7044   2.284   1.355   5.241  0.0900  0.1609 -0.3275
 3447W        W 7045   2.150   0.032  10.736  0.2218  0.1743  0.0013
 3448W        W 7046  10.777   1.339  15.701  0.0786  0.1467 -0.0083
 3449W        W 7047   4.256  14.656  13.888  0.3432 -0.1833 -0.2844
 3450W        W 7048  13.917   5.443  10.036 -0.1230  0.2545  0.0338
 3451W        W 7049   2.720   9.455  15.976  0.0541 -0.1946 -0.1135
 3452W        W 7050   2.501  13.065  12.250 -0.0843  0.1784 -0.0606
 3453W        W 7051  12.238   6.037   4.115  0.0740 -0.1429 -0.1124
 3454W        W 7052  14.817   3.008   3.403  0.1620 -0.0799 -0.0192
 3455W        W 7053   4.354   5.360  12.335  0.1534  0.0456 -0.0398
 3456W        W 7054   8.078   5.377   8.835  0.1881  0.2254  0.2205
 3457W        W 7055   2.498  12.952   8.442 -0.3193  0.0788 -0.0085
 3458W        W 7056  15.964   5.100   3.712 -0.3480 -0.0487  0.1980
 3459W        W 7057   4.805   6.105   9.303 -0.2436 -0.2224 -0.0616
 3460W        W 7058  10.798  10.267  13.535  0.1589 -0.2019  0.1216
 3461W        W 7059   1.898  12.374   1.202 -0.3051  0.0024  0.4055
 3462W        W 7060   6.616   7.181  14.469 -0.1619  0.2067  0.0810
 3463W        W 7061  10.643  13.332   3.045 -0.1629 -0.2180  0.1452
 3464W        W 7062  15.150   2.024  11.025 -0.3215  0.1913 -0.0871
 3465W        W 7063   8.303  13.026  16.038 -0.2537  0.1397  0.0538
 3466W        W 7064   8.274  15.313   0.895  0.0076  0.0881 -0.0208
 3467W        W 7065   0.518   3.507  10.502 -0.0447 -0.2923  0.1334
 3468W        W 7066   5.449  10.708   8.587 -0.1080  0.0876 -0.1328
 3469W        W 7067   3.517   0.025   6.507 -0.0649  0.0913 -0.1799
 3470W        W 7068  14.503   8.431  12.542 -0.3070  0.0694  0.0435
 3471W        W 7069   1.496  13.671   7.057  0.0856  0.0806  0.0239
 3472W        W 7070  12.944  14.689   4.167 -0.1243  0.0942  0.0676
 3473W        W 7071   7.442   8.345   3.846  0.1648 -0.1584 -0.0783
 3474W        W 7072  10.334  11.385   4.448 -0.3016 -0.0059  0.0078
 3475W        W 7073  13.339   8.426  11.821  0.1429 -0.0802 -0.0423
 3476W        W 7074  15.193  11.966   4.773  0.0916 -0.0972  0.2017
 3477W        W 7075   2.188   2.224  14.894 -0.2508  0.1957 -0.1688
 3478W        W 7076  14.994   8.124   6.176 -0.2275  0.1423  0.0573
 3479W        W 7077  14.538  11.172  14.529 -0.0786 -0.1428 -0.0560
 3480W        W 7078   9.602  11.970  10.058 -0.1579 -0.0097 -0.0734
 3481W        W 7079   6.431   4.194  15.080 -0.2127 -0.0188  0.1341
 3482W        W 7080   9.436   6.558   1.396 -0.1599  0.0778  0.0325
 3483W        W 7081  14.414   2.161  10.534 -0.1009  0.1288  0.3475
 3484W        W 7082   9.215   5.064  14.069  0.2373  0.0864 -0.2460
 3485W        W 7083  12.295   5.812  14.080 -0.2647 -0.1402 -0.1740
 3486W        W 7084  11.957   4.769   7.683  0.1042 -0.0825  0.3344
 3487W        W 7085  16.219  14.134   8.174 -0.2537 -0.0944  0.0126
 3488W        W 7086   3.716  15.300  16.108  0.1451 -0.0917 -0.4126
 3489W        W 7087   9.303  12.807   6.788  0.0272 -0.1429  0.2983
 3490W        W 7088   5.509   9.815  12.891  0.1856  0.1996  0.1987
 3491W        W 7089  10.674   0.311  10.709  0.0795 -0.2856 -0.2447
 3492W        W 7090   4.074  15.391  11.584  0.0234 -0.1262  0.0060
 3493W        W 7091   5.535   1.944   9.414  0.0096 -0.1854 -0.2330
 3494W        W 7092   1.532   4.171   2.475 -0.3295  0.0253  0.1894
 3495W        W 7093   1.026   2.653   3.652 -0.2572 -0.0365 -0.0462
 3496W        W 7094  14.190  13.795  14.356 -0.1221  0.0015 -0.0546
 3497W        W 7095   7.183   7.884   4.294  0.2957 -0.0519  0.1178
 3498W        W 7096  13.088   9.489   4.683  0.3446 -0.0660  0.1436
 3499W        W 7097  10.181   8.419  15.330 -0.1572  0.1421  0.2311
 3500W        W 7098   2.965   1.715   8.041  0.3478 -0.0535 -0.0769
 3501W        W 7099   5.103  14.353   3.465  0.0961 -0.0181 -0.1696
 3502W        W 7100   5.142   4.520   7.906 -0.0843 -0.0511 -0.0579
 3503W        W 7101  16.358   2.404  11.525 -0.0638 -0.0975  0.2143
 3504W        W 7102  14.104   3.385   3.167 -0.0185  0.0342  0.0529
 3505W        W 7103   9.220  10.007   6.339 -0.2632  0.0997  0.1570
 3506W        W 7104   7.213   2.518   0.114 -0.1375  0.1087  0.2859
 3507W        W 7105  13.539  11.143   1.784 -0.2383 -0.1569 -0.0047
 3508W        W 7106   5.100  15.914   3.276 -0.3155 -0.0007  0.0669
 3509W        W 7107   7.712  15.703   9.489 -0.0262 -0.0181 -0.1134
 3510W        W 7108   9.106   1.643   7.822  0.1449  0.0684 -0.0166
 3511W        W 7109   8.159   4.411   9.767  0.0435  0.1540  0.0161
 3512W        W 7110   9.002  16.044  12.078 -0.1063  0.2066 -0.2283
 3513W        W 7111  14.222   8.804  10.082  0.2245  0.1866  0.0959
 3514W        W 7112  15.705  13.288   2.415  0.4544 -0.1545  0.0775
 3515W        W 7113   9.637  11.076   1.371 -0.1455  0.1890  0.1375
 3516W        W 7114   0.524  14.206  14.311  0.0822 -0.0609 -0.0009
 3517W        W 7115   4.772  12.727  11.447 -0.0401 -0.1987 -0.1503
 3518W        W 7116  13.909  12.011   2.246  0.1099 -0.2742 -0.0955
 3519W        W 7117   2.393  14.822  11.433 -0.1192 -0.0020  0.0370
 3520W        W 7118  13.940   8.770  14.148 -0.0237 -0.0910  0.0022
 3521W        W 7119   1.012   5.842  15.890  0.1431  0.0900  0.1627
 3522W        W 7120  11.791   3.067   5.164  0.0030  0.1373  0.4622
 3523W        W 7121  14.609   6.446   0.794 -0.0085  0.1327 -0.0281
 3524W        W 7122  14.841   0.345   8.532 -0.1244 -0.0603 -0.0681
 3525W        W 7123   1.779   3.495   9.240  0.2865 -0.0045 -0.0943
 3526W        W 7124  16.067   0.165  16.298 -0.1102  0.1018 -0.2911
 3527W        W 7125   3.569  13.559   7.197  0.2500  0.2058  0.2551
 3528W        W 7126  13.478   7.892  15.286 -0.2398  0.3381  0.1266
 3529W        W 7127  14.955   8.097   1.027  0.3240  0.2315  0.0941
 3530W        W 7128   4.766   0.525   1.018 -0.0207  0.2732 -0.2821
 3531W        W 7129   6.375   8.122  16.043 -0.2671 -0.0004  0.4484
 3532W        W 7130  10.615  12.869  11.462 -0.1557 -0.5125 -0.0760
 3533W        W 7131   0.741   2.109   4.696 -0.1441 -0.2786  0.2322
 3534W        W 7132  10.759   2.169  14.434  0.0932  0.2890 -0.4577
 3535W        W 7133   0.372  13.735   6.459 -0.0554 -0.0881 -0.0817
 3536W        W 7134  13.473   5.090   5.693  0.0997  0.0445 -0.0233
 3537W        W 7135   1.762   7.939   9.478 -0.1142 -0.3207 -0.1012
 3538W        W 7136   1.124  13.790   6.685  0.0514 -0.0214  0.0567
 3539W        W 7137  15.448  13.541   5.953 -0.3097 -0.0336  0.0542
 3540W        W 7138  10.553   3.521   5.573 -0.1225  0.0445  0.0449
 3541W        W 7139   0.365  11.504   5.256  0.1495 -0.0234  0.0411
 3542W        W 7140  15.132   7.177   5.940  0.1087 -0.1680 -0.1313
 3543W        W 7141  16.357  11.080   3.687  0.0307  0.1967  0.3122
 3544W        W 7142   1.013   9.866   1.164 -0.0947 -0.2475  0.0253
 3545W        W 7143   0.207   6.917  14.039 -0.2389 -0.0693 -0.4073
 3546W        W 7144   0.760   0.763  13.505  0.0589 -0.0454  0.1992
 3547W        W 7145   5.668   2.870   2.866 -0.0278 -0.0257 -0.0146
 3548W        W 7146  15.682   8.828   3.757 -0.3609 -0.1381  0.2652
 3549W        W 7147   7.697   9.907  15.710 -0.2189  0.1480 -0.1976
 3550W        W 7148  11.850   9.533  16.389  0.0562 -0.3321 -0.2672
 3551W        W 7149   4.209  11.734   9.692 -0.1006 -0.3390  0.0352
 3552W        W 7150   7.848  12.693  12.494  0.1240 -0.0298 -0.0146
 3553W        W 7151  11.916  13.637   5.265  0.0965 -0.1090 -0.0281
 3554W        W 7152   6.024  14.453   1.225 -0.1377 -0.1211 -0.1231
 3555W        W 7153  15.279   4.226   4.161  0.1066  0.2163 -0.0182
 3556W        W 7154   6.209   7.301   4.877 -0.2907 -0.1128  0.0068
 3557W        W 7155   4.311   4.245  13.673  0.0235  0.0495 -0.2755
 3558W        W 7156  14.623  11.329   2.070 -0.1567 -0.1200  0.3325
 3559W        W 7157   8.455   6.728  15.241 -0.0152  0.0224  0.2103
 3560W        W 7158  15.086   0.944  16.216  0.0397  0.1464 -0.0584
 3561W        W 7159   1.205  13.296   2.502  0.0595 -0.0034  0.1158
 3562W        W 7160   6.690   5.959   5.997 -0.1951 -0.0354  0.1740
 3563W        W 7161  13.951   3.753   1.554  0.1134 -0.0775 -0.0162
 3564W        W 7162   5.161   8.766  13.849  0.1047  0.0804  0.2619
 3565W        W 7163  16.272   4.013  13.541  0.0875 -0.1380  0.0822
 3566W        W 7164  14.056   7.935   1.504  0.1675  0.0670 -0.2153
 3567W        W 7165  15.025   0.702  13.699  0.0668  0.2577  0.0763
 3568W        W 7166  10.119  11.910  10.931  0.1634  0.1094  0.1561
 3569W        W 7167  10.300   5.834  14.156 -0.0149 -0.0685  0.2462
 3570W        W 7168  15.425  10.646   9.101 -0.2403  0.0162  0.0501
 3571W        W 7169   9.906   1.775   5.922 -0.2004 -0.2620  0.3099
 3572W        W 7170  14.151   9.898  13.264 -0.1255 -0.0212 -0.1668
 3573W        W 7171   6.996   9.469   9.913 -0.0170  0.1510 -0.3613
 3574W        W 7172   9.919  11.546  15.504  0.2232 -0.1172 -0.3741
 3575W        W 7173   3.484   1.573   8.298 -0.0738 -0.0878 -0.0511
 3576W        W 7174  10.179  13.852   7.198  0.1818 -0.1504 -0.0868
 3577W        W 7175   9.862  15.005   6.378 -0.1255 -0.3890 -0.0582
 3578W        W 7176   7.276   4.994  13.602 -0.0980  0.1041 -0.3334
 3579W        W 7177   6.640  10.943   9.799 -0.2972 -0.1392  0.2517
 3580W        W 7178  10.462   5.711   8.199  0.0555  0.0414  0.3611
 3581W        W 7179   2.347  11.251  12.944  0.0127  0.3296  0.3407
 3582W        W 7180  14.092   0.454   9.786 -0.2635  0.1524  0.0226
 3583W        W 7181   4.645   7.281   6.345  0.1377  0.1920  0.0108
 3584W        W 7182  14.645  15.383   4.128 -0.0745  0.3731 -0.3766
 3585W        W 7183  11.417   0.077  13.405  0.4235 -0.1003  0.0017
 3586W        W 7184  13.514   6.735   5.017 -0.2479  0.1437  0.1210
 3587W        W 7185   7.593  13.443   4.769 -0.0388 -0.3255  0.0298
 3588W        W 7186   9.135   3.463   7.035  0.3082  0.0404  0.1394
 3589W        W 7187   1.049  13.552   4.220  0.4389 -0.1699  0.0673
 3590W        W 7188  15.953   1.149   4.146 -0.1828  0.0770  0.1327
 3591W        W 7189  10.307  16.179   0.111  0.0005 -0.0568  0.0694
 3592W        W 7190   0.365  13.029   1.761  0.0480 -0.0396  0.0325
 3593W        W 7191   5.745  13.758   2.573  0.0351  0.1254  0.0574
 3594W        W 7192  13.376  12.752  13.309 -0.2716  0.1920 -0.1383
 3595W        W 7193   3.128   7.747   1.127 -0.2850  0.2596  0.3472
 3596W        W 7194   7.658   8.929   2.884 -0.0437  0.3017  0.1255
 3597W        W 7195  13.972   5.076   5.107  0.2227  0.0259 -0.0515
 3598W        W 7196  15.927  15.189   6.649  0.0815  0.3582 -0.2531
 3599W        W 7197   4.456   0.433   1.398  0.0145  0.0053  0.3238
 3600W        W 7198   3.531  10.532  10.440  0.0528 -0.1363  0.1796
 3601W        W 7199   6.802   9.678   7.904 -0.1394 -0.2433  0.2251
 3602W        W 7200  10.414   5.457   4.802 -0.0003 -0.1726 -0.2441
 3603W        W 7201   8.061  14.013   4.402  0.1459  0.0868 -0.0779
 3604W        W 7202   8.231   8.901  14.894 -0.4814  0.0257  0.0607
 3605W        W 7203   2.365   6.909  10.225 -0.1218  0.0135  0.0781
 3606W        W 7204   3.813  11.584   2.517  0.1795 -0.0505 -0.1584
 3607W        W 7205   5.897   5.019   2.982  0.0739  0.2781  0.2588
 3608W        W 7206  11.614   7.168  14.763  0.1868  0.0049  0.1986
 3609W        W 7207  12.568   2.492   7.791 -0.2726 -0.3112  0.0167
 3610W        W 7208   6.126   5.914  12.968 -0.0548 -0.0007 -0.0507
 3611W        W 7209   2.348   3.140  10.492 -0.1281 -0.2620 -0.2430
 3612W        W 7210   3.487  10.884   3.877 -0.2812  0.4529 -0.0142
 3613W        W 7211   4.469  15.596   8.821 -0.1596  0.0354 -0.0302
 3614W        W 7212  13.834   8.247   8.235  0.2975 -0.2597  0.1138
 3615W        W 7213   7.057   2.755   7.082 -0.1309 -0.1104  0.1898
 3616W        W 7214   0.449   6.763   0.894 -0.1582 -0.1547  0.0232
 3617W        W 7215  13.866   3.249   6.967 -0.1105  0.0840  0.0644
 3618W        W 7216   2.870  10.387   3.292 -0.1529 -0.1879  0.1914
 3619W        W 7217   6.154  10.765   0.739  0.1318  0.1430 -0.1047
 3620W        W 7218  10.987   4.051  13.720 -0.0521 -0.0479  0.0699
 3621W        W 7219  13.033   2.136  12.217 -0.0476  0.0386  0.1409
 3622W        W 7220   4.511   9.844   0.791 -0.0008  0.0298  0.1661
 3623W        W 7221   5.372   3.515   2.392 -0.0032 -0.1804  0.1492
 3624W        W 7222   3.921  10.294  16.065  0.1139 -0.0368  0.1152
 3625W        W 7223   9.803   1.573  14.973  0.1025  0.2854  0.2738
 3626W        W 7224  15.867   2.911   8.269 -0.4566  0.3266  0.0589
 3627W        W 7225  13.827   1.828  11.042 -0.0432 -0.3870  0.1650
 3628W        W 7226  13.975   0.392   1.680  0.0227 -0.2952 -0.0705
 3629W        W 7227   4.381   1.959  15.552  0.3916 -0.3104 -0.0224
 3630W        W 7228  11.267  10.495  13.641  0.3378  0.0983 -0.0857
 3631W        W 7229   3.823   7.421   3.288 -0.3830 -0.2336  0.0685
 3632W        W 7230  11.917   2.574   5.113  0.3496  0.3318 -0.0909
 3633W        W 7231  11.964  13.673  10.534  0.3241  0.3279  0.1493
 3634W        W 7232   4.800   5.620   7.389  0.0910  0.4146  0.0734
 3635W        W 7233   2.181  12.841   6.466  0.0595 -0.5583  0.2372
 3636W        W 7234   1.561   2.158  15.573 -0.0215 -0.2286  0.1010
 3637W        W 7235   9.775   0.429  16.043 -0.1520 -0.0369  0.1424
 3638W        W 7236   8.642  11.063   0.265  0.2943 -0.2496  0.0679
 3639W        W 7237   0.013   6.046  14.833 -0.0135 -0.1388 -0.2461
 3640W        W 7238   6.321   6.328   5.489 -0.1036  0.0440 -0.0286
 3641W        W 7239   7.859   1.633   4.780  0.1826 -0.1258  0.2474
 3642W        W 7240   5.514   7.516  16.038  0.0992  0.1727 -0.0384
 3643W        W 7241   5.865   6.744  15.995 -0.2912 -0.3834  0.0214
 3644W        W 7242   6.809   7.231  16.011 -0.0085  0.0961 -0.2187
 3645W        W 7243   6.755   4.903   4.205  0.2702  0.1435 -0.2209
 3646W        W 7244  11.153   5.808  12.292 -0.0208  0.2835 -0.0116
 3647W        W 7245   4.409  12.415  13.770  0.0035 -0.2828 -0.2091
 3648W        W 7246   4.950   5.332  10.574 -0.1559 -0.1829 -0.2094
 3649W        W 7247  14.343  14.669   3.062 -0.3101  0.2584 -0.0855
 3650W        W 7248   5.800  15.353  13.345  0.3461  0.1678  0.0306
 3651W        W 7249   2.567   6.170  14.298 -0.0825  0.1788  0.0570
 3652W        W 7250  14.132   9.267   4.601  0.0132 -0.2279 -0.0570
 3653W        W 7251  14.084   6.774  12.435 -0.1567  0.3541 -0.0909
 3654W        W 7252   4.074   2.760   2.956 -0.3192 -0.4020  0.1005
 3655W        W 7253   8.091   0.378   2.753  0.1574  0.3039 -0.2207
 3656W        W 7254   2.217   9.982   9.411 -0.2066  0.1827 -0.0171
 3657W        W 7255   0.409   8.986  15.693  0.3037  0.1788  0.0324
 3658W        W 7256   8.910   8.949  12.234  0.1298  0.1993 -0.3165
 3659W        W 7257   8.096   3.318   4.366  0.1420  0.0350  0.0686
 3660W        W 7258   5.972   9.774  14.982  0.0959 -0.3163 -0.0053
 3661W        W 7259   5.098   9.119  15.216  0.1140 -0.0216 -0.0918
 3662W        W 7260   0.698  12.346   2.913 -0.0664  0.0229  0.0522
 3663W        W 7261   6.466  14.319   1.010 -0.0788 -0.0456  0.1776
 3664W        W 7262   2.904   2.656   7.392  0.2351 -0.1035 -0.0225
 3665W        W 7263  11.416   5.625  11.848  0.2055  0.1285 -0.1519
 3666W        W 7264  15.453  13.479  12.602  0.3389  0.0061  0.0826
 3667W        W 7265   5.977  15.456  10.385  0.3341 -0.1507  0.0992
 3668W        W 7266   5.107  10.371  12.421 -0.1110  0.4373 -0.0942
 3669W        W 7267  11.822  11.035   3.631  0.1257  0.0112  0.0621
 3670W        W 7268  13.864   4.776   2.386  0.1428  0.0062 -0.0622
 3671W        W 7269  10.944   1.635   7.494 -0.0008 -0.2121  0.0054
 3672W        W 7270   4.394   7.526  14.809  0.5118  0.0676 -0.1037
 3673W        W 7271   1.051   1.882   8.797  0.2076  0.0886  0.4604
 3674W        W 7272   5.213   9.040  11.125 -0.1284 -0.1594  0.1754
 3675W        W 7273   9.704   1.805   8.558  0.0002  0.0086  0.0816
 3676W        W 7274   0.676  14.740   0.116 -0.0126 -0.2611  0.3543
 3677W        W 7275   4.713   6.206  10.663 -0.2938  0.0615  0.0796
 3678W        W 7276   6.231   0.921   0.253 -0.1775  0.0898 -0.2384
 3679W        W 7277   8.695  10.247  13.040 -0.0978 -0.3670  0.0415
 3680W        W 7278  14.885   3.202   6.186 -0.0080  0.0138  0.2122
 3681W        W 7279  15.080   2.868   6.943  0.0950  0.1047  0.1312
 3682W        W 7280   2.917  12.140   6.256 -0.1216 -0.0084  0.1412
 3683W        W 7281  10.314   6.115  13.680 -0.0171 -0.1419  0.1937
 3684W        W 7282  11.208   5.541   8.624 -0.1510 -0.4215 -0.0246
 3685W        W 7283  10.667  11.821  15.714  0.1701  0.1490  0.2117
 3686W        W 7284   2.179   3.420   8.964  0.0674  0.1702  0.0233
 3687W        W 7285  10.756   7.752  15.794 -0.0778  0.2423  0.2190
 3688W        W 7286   6.287   8.838   6.098  0.2291 -0.0541  0.1817
 3689W        W 7287   8.269  14.263   4.943 -0.0555 -0.0085 -0.2066
 3690W        W 7288  16.219   0.409   7.823  0.2852 -0.0775 -0.3516
 3691W        W 7289  10.712   7.119   9.952  0.0920 -0.1855  0.2521
 3692W        W 7290   0.346   0.459   1.308  0.2438  0.1619 -0.2256
 3693W        W 7291  12.986   3.082   3.729  0.2444 -0.3101  0.0294
 3694W        W 7292   8.168   9.919   9.579 -0.2628  0.1965 -0.0626
 3695W        W 7293  14.435   3.397  10.069  0.0906 -0.1393 -0.0245
 3696W        W 7294  10.097   6.002   6.428 -0.3035  0.1251  0.0346
 3697W        W 7295   2.189   5.908   0.845  0.2925  0.3193  0.2872
 3698W        W 7296   7.160   3.886  12.928  0.2198  0.0557 -0.1210
 3699W        W 7297  10.718  11.604   3.300  0.2850  0.1675 -0.3331
 3700W        W 7298   7.508  12.716  12.896 -0.0125 -0.1603 -0.0535
 3701W        W 7299   9.384  15.993   5.742  0.1525 -0.1386  0.1932
 3702W        W 7300   4.236  11.859   2.641 -0.1850 -0.3681 -0.1115
 3703W        W 7301   6.838   7.069  10.465 -0.1279  0.1258 -0.2451
 3704W        W 7302   1.824  16.091  11.527 -0.0282 -0.0697  0.3323
 3705W        W 7303   4.150   7.492   9.349 -0.4144  0.0836 -0.1718
 3706W        W 7304  15.039  11.865   8.445  0.1082  0.1241 -0.0121
 3707W        W 7305   9.241   8.153   5.375 -0.1465 -0.1832 -0.1627
 3708W        W 7306   7.948  10.821   6.393  0.0459  0.0612  0.1238
 3709W        W 7307  11.104  13.142   7.513 -0.2214  0.0401 -0.0817
 3710W        W 7308  12.450  13.513   1.497  0.1591 -0.1979 -0.1059
 3711W        W 7309  11.700  14.183   0.599  0.0628  0.0416  0.1300
 3712W        W 7310   0.279  15.598   3.398 -0.2383 -0.2572 -0.1456
 3713W        W 7311   6.766  11.935   5.248 -0.1181 -0.2670  0.0710
 3714W        W 7312   2.190   8.953   8.267  0.4053 -0.1425  0.0363
 3715W        W 7313   6.605  13.561  10.933 -0.0628 -0.2349 -0.1256
 3716W        W 7314   9.583   6.212   2.113  0.3412 -0.2478 -0.1641
 3717W        W 7315   3.742   6.175  10.432 -0.2136  0.2164  0.1729
 3718W        W 7316   8.101   0.096   7.379 -0.0598  0.0182  0.3173
 3719W        W 7317   8.963   7.109   3.270 -0.2880 -0.1589  0.1509
 3720W        W 7318   1.029   0.554  15.120 -0.1622  0.1685  0.0157
 3721W        W 7319   5.568   0.420   2.549  0.4737  0.0795  0.1353
 3722W        W 7320  12.259   7.867   8.369 -0.0528 -0.1333  0.4814
 3723W        W 7321   5.678   4.705   4.917  0.0343  0.3024 -0.2046
 3724W        W 7322  13.231   4.816   8.888  0.2168  0.1889  0.0379
 3725W        W 7323   0.146  10.806  12.609 -0.1356  0.0649 -0.1067
 3726W        W 7324   1.870   0.494   0.364  0.1183 -0.1594  0.3214
 3727W        W 7325  12.105  10.702  14.793  0.1137  0.1356 -0.1344
 3728W        W 7326   6.668  13.092   3.627  0.0964  0.0918 -0.1125
 3729W        W 7327  16.103   4.840   5.377 -0.0464  0.1963  0.1596
 3730W        W 7328  10.690  11.022  16.227  0.2702 -0.1858  0.0651
 3731W        W 7329   7.105   7.784   0.095  0.2428  0.1177 -0.2336
 3732W        W 7330   1.356   7.851  12.148 -0.2636 -0.0167  0.1333
 3733W        W 7331   6.936   0.517  11.049 -0.1609  0.2596 -0.0183
 3734W        W 7332   0.640   5.750   7.444 -0.2498 -0.0215 -0.3875
 3735W        W 7333   3.136   7.269   4.509 -0.2240 -0.2064 -0.1682
 3736W        W 7334  14.253  10.472  16.000 -0.1455  0.0101 -0.3290
 3737W        W 7335  12.931   7.331   0.851 -0.2456  0.3149 -0.3224
 3738W        W 7336   2.525  11.155   8.200  0.1456  0.0127 -0.1692
 3739W        W 7337   1.732  11.153   0.007  0.0056 -0.1811 -0.0982
 3740W        W 7338  12.501   7.515   0.656 -0.0007 -0.1623 -0.0734
 3741W        W 7339   2.613  13.940  11.753 -0.2417 -0.1593 -0.2788
 3742W        W 7340  11.155  14.489   9.063 -0.0392 -0.3511 -0.1324
 3743W        W 7341  14.704   4.453  13.581 -0.3148 -0.0536  0.2233
 3744W        W 7342  10.361  13.269   3.438 -0.0696  0.2582  0.1002
 3745W        W 7343  16.110  10.057   2.210 -0.2707 -0.0472 -0.2091
 3746W        W 7344  13.125   1.550  16.266 -0.3786 -0.2542 -0.3174
 3747W        W 7345  15.654  12.748  12.987  0.0450 -0.3131  0.2034
 3748W        W 7346   3.276  11.753   6.298  0.2594 -0.0044  0.0585
 3749W        W 7347   4.253  11.546  11.479  0.2666 -0.1775  0.2694
 3750W        W 7348   9.031  11.243  11.232 -0.0390  0.2139 -0.1329
 3751W        W 7349  15.849  13.701   3.614  0.0293  0.0130  0.1091
 3752W        W 7350   8.507   4.596  11.526  0.1834 -0.0866 -0.1623
 3753W        W 7351   8.433   1.266   0.962 -0.1800 -0.0537 -0.2639
 3754W        W 7352  15.915   7.017   7.865 -0.1225 -0.2099 -0.1387
 3755W        W 7353   6.971  14.210  12.474  0.1288  0.1665  0.1762
 3756W        W 7354   6.036   6.318  14.120 -0.1625 -0.0635  0.0975
 3757W        W 7355  13.194  11.923   7.577  0.2223  0.2146 -0.2754
 3758W        W 7356   6.558   4.217   9.593  0.1271 -0.0508  0.1673
 3759W        W 7357   6.741   6.782  16.251  0.2623 -0.0280  0.4713
 3760W        W 7358  14.820   3.313   2.061  0.2670  0.0681 -0.0147
 3761W        W 7359   6.994  10.032   8.154  0.2334 -0.0879 -0.1946
 3762W        W 7360  10.755  12.687   1.468 -0.4780  0.1191 -0.2637
 3763W        W 7361   5.110  10.163  11.829 -0.1988 -0.3193 -0.1082
 3764W        W 7362  12.224   2.036  16.254  0.2225 -0.0621  0.1097
 3765W        W 7363   2.876   8.160   5.358 -0.1695  0.1990 -0.2494
 3766W        W 7364  16.393   1.275  14.832  0.0959 -0.0080 -0.1415
 3767W        W 7365   9.832   1.291   3.700 -0.4185  0.0366 -0.0552
 3768W        W 7366   9.203  11.905   0.841  0.3068  0.1312  0.1551
 3769W        W 7367  13.404  15.162   2.244  0.0878  0.2319  0.0408
 3770W        W 7368   1.541  16.163   9.614  0.2469  0.1261 -0.0008
 3771W        W 7369   3.380   3.528   9.660  0.1216 -0.1263  0.1554
 3772W        W 7370   3.350  15.087   2.651 -0.0787 -0.1160 -0.1177
 3773W        W 7371   0.208   9.434  16.055 -0.2258  0.0063 -0.0494
 3774W        W 7372   0.487  10.888   0.968  0.1522  0.1628 -0.2366
 3775W        W 7373   0.684   4.250   5.654 -0.1872 -0.0124 -0.0799
 3776W        W 7374  13.416   7.288  15.296 -0.2272  0.1129  0.3448
 3777W        W 7375  10.667   5.844  11.269 -0.2945 -0.0442 -0.1932
 3778W        W 7376  13.055   6.085   7.483 -0.2371 -0.2267  0.1497
 3779W        W 7377   1.248  14.967   3.447  0.2878 -0.2486  0.4954
 3780W        W 7378  14.576   4.728   4.675 -0.1621  0.1195 -0.1218
 3781W        W 7379   8.968   5.395   7.233  0.0446 -0.0672 -0.1862
 3782W        W 7380   2.854   8.069  15.532 -0.2201  0.2496 -0.2219
 3783W        W 7381   8.189   7.318   4.823 -0.1385  0.2894  0.2492
 3784W        W 7382   7.459   6.707   1.745 -0.1760  0.2056  0.2121
 3785W        W 7383  12.945   0.214   6.864  0.2002  0.0500  0.2118
 3786W        W 7384   2.294   9.856  10.873  0.3784  0.3328  0.1929
 3787W        W 7385  12.755  16.078   7.119  0.2371  0.1338  0.1380
 3788W        W 7386   8.703   9.298   4.586  0.0174  0.0968 -0.0797
 3789W        W 7387   1.562  11.748   2.875  0.0353 -0.0314  0.0484
 3790W        W 7388  15.428  15.723  15.443  0.3673 -0.0712  0.2218
 3791W        W 7389  11.755  14.629   9.110 -0.0147  0.0652 -0.0625
 3792W        W 7390  15.274   3.107   8.263  0.0422  0.0197 -0.0435
 3793W        W 7391  13.760  14.206  10.265  0.1356  0.3231  0.0075
 3794W        W 7392  10.361  11.503   2.015 -0.2799  0.2137  0.3487
 3795W        W 7393  14.823   2.826  11.231  0.2787 -0.0454 -0.2638
 3796W        W 7394   7.755   9.277   7.367  0.0453  0.0255  0.0760
 3797W        W 7395   0.223   1.303  10.495 -0.2975  0.2785  0.1905
 3798W        W 7396  11.185   2.273  13.539 -0.0116  0.1935  0.1701
 3799W        W 7397   1.363   1.266   0.026 -0.0541 -0.0162 -0.2563
 3800W        W 7398   9.844  15.440   4.101 -0.2400  0.0197 -0.1374
 3801W        W 7399   5.405  11.476   3.608 -0.1738 -0.1404 -0.1021
 3802W        W 7400   2.737   2.773   8.921 -0.0928  0.0335 -0.4390
 3803W        W 7401  10.186  13.387   2.413 -0.1047 -0.0143 -0.0379
 3804W        W 7402   0.267   0.484  14.858 -0.1175 -0.1701 -0.0501
 3805W        W 7403  14.091   5.402  12.745 -0.2405  0.1872 -0.0071
 3806W        W 7404  10.677   0.430  15.285  0.0374  0.1967 -0.0051
 3807W        W 7405   9.126   5.031   0.683  0.1019  0.0906  0.1651
 3808W        W 7406   0.858  11.746   5.357 -0.2009  0.0349  0.1839
 3809W        W 7407  15.190   0.282   2.050 -0.0790 -0.0538  0.0259
 3810W        W 7408  13.451   4.648  13.810  0.0569  0.0323 -0.0882
 3811W        W 7409  11.508   6.670   0.920  0.4013 -0.1766 -0.0761
 3812W        W 7410   9.775   1.901   3.842  0.0843  0.3123  0.4065
 3813W        W 7411   6.015  14.960   0.246  0.1995 -0.1295 -0.1563
 3814W        W 7412   5.791   7.385   4.621  0.0686  0.2268 -0.1224
 3815W        W 7413  12.908   2.048  14.099 -0.1530  0.0254 -0.0657
 3816W        W 7414  10.062   1.927   6.908 -0.0612 -0.1755 -0.2110
 3817W        W 7415   4.162  11.642   4.754 -0.0518  0.0677 -0.2895
 3818W        W 7416   4.647   6.424  14.764  0.0346  0.1320  0.0816
 3819W        W 7417   3.218   1.048   0.731 -0.0255 -0.1130  0.0807
 3820W        W 7418   2.253   6.873   3.739 -0.1472  0.0962  0.1204
 3821W        W 7419  14.933   1.323  13.806 -0.0072 -0.1508  0.1341
 3822W        W 7420  14.505  15.808   9.450  0.3334 -0.0154  0.0390
 3823W        W 7421   7.659   8.730   8.269 -0.0233  0.1097 -0.0606
 3824W        W 7422   7.240  11.392   6.140  0.2275 -0.1338 -0.0088
 3825W        W 7423   2.217  13.505   2.710  0.0671 -0.0075 -0.0152
 3826W        W 7424   1.585   2.995  12.549  0.1692 -0.2926  0.0742
 3827W        W 7425  13.496  13.423   4.196 -0.3138 -0.0244  0.0246
 3828W        W 7426   4.250   5.754   1.534 -0.2371  0.0013 -0.1236
 3829W        W 7427  16.296   2.417   2.753  0.0235 -0.0723 -0.1472
 3830W        W 7428   2.789   0.788   0.835 -0.1389 -0.1100 -0.1101
 3831W        W 7429   5.286  14.174  10.463 -0.2713  0.0248 -0.1868
 3832W        W 7430  15.820   2.939  10.134  0.1308  0.2455  0.4816
 3833W        W 7431   9.725  11.530   1.417  0.1578 -0.0407  0.0500
 3834W        W 7432   1.389   1.633   9.668 -0.1043 -0.2599 -0.0565
 3835W        W 7433   8.707   3.853  13.798  0.2523  0.1604  0.0777
 3836W        W 7434   8.426   2.216   4.429 -0.1559 -0.1878  0.0187
 3837W        W 7435   6.821  12.258  14.434  0.0976  0.2575 -0.0702
 3838W        W 7436  14.923  12.531   7.989 -0.1576  0.0187  0.0195
 3839W        W 7437  10.806   8.790  16.219 -0.1193 -0.3658  0.1823
 3840W        W 7438   0.493  13.905   8.725  0.1671 -0.0278  0.1764
 3841W        W 7439   1.947   2.268   4.387 -0.0854  0.0722  0.1310
 3842W        W 7440  15.789  14.867   5.030 -0.0977  0.1649  0.0029
 3843W        W 7441  11.754   0.251   3.543 -0.0867 -0.1333 -0.0946
 3844W        W 7442  14.726   4.724   8.930  0.0056 -0.0563  0.0461
 3845W        W 7443   9.619   7.561   8.402  0.1111  0.1063 -0.1367
 3846W        W 7444   0.094  16.306   7.100 -0.2293 -0.1789  0.0106
 3847W        W 7445   1.430   7.968  15.137  0.2568 -0.1183 -0.2630
 3848W        W 7446   5.565  12.969  16.078  0.2603 -0.5223  0.4115
 3849W        W 7447  11.554   6.226  14.188  0.1994 -0.0365  0.0999
 3850W        W 7448   6.573   4.663  12.037  0.2167 -0.0118  0.0442
 3851W        W 7449  14.310   6.196   8.852 -0.0426  0.1911  0.2639
 3852W        W 7450   8.435   9.347  10.568 -0.0464  0.0899  0.0024
 3853W        W 7451  11.556  11.604   4.371 -0.0583 -0.2024  0.2456
 3854W        W 7452   9.974  15.241  12.092 -0.1669  0.2515  0.4336
 3855W        W 7453   4.720   8.379  11.389 -0.1822 -0.3623  0.1947
 3856W        W 7454   5.341   0.201  10.669  0.1847 -0.0642  0.0641
 3857W        W 7455   0.283   4.263  12.677  0.0617 -0.2350 -0.3146
 3858W        W 7456  14.912   7.298   4.435  0.0588 -0.3561  0.0581
 3859W        W 7457  15.844   6.901  10.765 -0.0870 -0.0109 -0.2995
 3860W        W 7458  11.525   0.881   7.582 -0.0243 -0.2862  0.1683
 3861W        W 7459  13.629   2.161   5.237 -0.1237 -0.0055 -0.1039
 3862W        W 7460   2.076  14.161   5.487 -0.1178  0.1821  0.1916
 3863W        W 7461   7.783  12.564   7.550 -0.1846  0.0927  0.1627
 3864W        W 7462   6.018   1.867   9.559  0.0685 -0.2091 -0.0294
 3865W        W 7463  13.324   1.174  16.039  0.1708  0.0536 -0.3731
 3866W        W 7464   2.166   0.445  15.902  0.2042 -0.1798  0.0092
 3867W        W 7465  14.776   2.621   4.128 -0.1335 -0.1963  0.1669
 3868W        W 7466   4.069  11.809   5.927  0.1469 -0.0375  0.3031
 3869W        W 7467   6.667   0.038   3.732  0.0079 -0.1444  0.2179
 3870W        W 7468   0.726   3.837   4.073  0.2773 -0.2500 -0.1209
 3871W        W 7469  14.022  15.116  15.230 -0.0022  0.0508 -0.1025
 3872W        W 7470   7.289  15.845  12.877 -0.1401 -0.3105 -0.3777
 3873W        W 7471  13.235   8.931   8.110  0.1401  0.2796 -0.0554
 3874W        W 7472   7.190   1.916   3.783  0.2012 -0.0858  0.1105
 3875W        W 7473   7.076  16.025   9.210  0.3602  0.1273  0.0487
 3876W        W 7474  15.976   4.914   9.930 -0.5206  0.0426  0.1250
 3877W        W 7475  14.312   4.681   2.665  0.2200  0.2390 -0.0233
 3878W        W 7476  10.925   4.462   3.395 -0.2620  0.0266 -0.0034
 3879W        W 7477   6.232   0.761   9.140  0.0803 -0.1096 -0.4257
 3880W        W 7478   6.227   3.054   0.798  0.1252 -0.2174  0.3374
 3881W        W 7479   1.915  11.736   9.464 -0.1181 -0.2921 -0.4022
 3882W        W 7480   2.361   4.035   4.845 -0.3366 -0.0557 -0.4285
 3883W        W 7481   3.278  12.291  10.806  0.0310 -0.1986  0.3431
 3884W        W 7482  14.984   5.615   1.176  0.1666  0.0242 -0.0591
 3885W        W 7483   4.796   0.833   4.235 -0.4834  0.0429 -0.1280
 3886W        W 7484  10.697   2.159   2.139  0.0067  0.0299 -0.0483
 3887W        W 7485   6.132   5.983   0.586  0.0839  0.0547 -0.0409
 3888W        W 7486   5.642  14.626   1.591 -0.1243  0.0045  0.0939
 3889W        W 7487  11.097   0.460   5.274  0.0299 -0.2043 -0.3971
 3890W        W 7488   7.862   1.313  13.443 -0.0677  0.0404 -0.0245
 3891W        W 7489  13.435   5.005   5.161 -0.0049 -0.0018  0.0018
 3892W        W 7490   7.096  12.110   9.379 -0.2087 -0.0368  0.1069
 3893W        W 7491   3.829  13.290  16.242 -0.0759 -0.3279  0.2161
 3894W        W 7492   6.851  11.965   6.366  0.1186  0.2589 -0.1817
 3895W        W 7493  11.522   3.478   5.426 -0.3012 -0.2231  0.0719
 3896W        W 7494   2.438   4.739   3.650 -0.0190 -0.1306 -0.3213
 3897W        W 7495  15.371   7.267  14.363 -0.0229 -0.1121 -0.1759
 3898W        W 7496  13.213  11.065   1.380  0.1417  0.2854 -0.0415
 3899W        W 7497  11.354   1.694   7.807 -0.1436 -0.1141 -0.2191
 3900W        W 7498   7.201   5.544   0.188 -0.3193  0.1975 -0.2740
 3901W        W 7499   5.098   3.905   6.959  0.0908 -0.1103  0.3184
 3902W        W 7500   4.898   1.911  13.157  0.3959  0.0116 -0.0950
 3903W        W 7501   9.355   0.423  10.216  0.2342 -0.3003 -0.1048
 3904W        W 7502   3.088   4.323   2.228  0.5974 -0.2824  0.0914
 3905W        W 7503  12.824   6.274   5.446 -0.0769  0.0615 -0.0442
 3906W        W 7504   8.645   5.638   1.986  0.2606 -0.2760  0.0239
 3907W        W 7505   0.384   2.277   7.362 -0.2501  0.2600 -0.0160
 3908W        W 7506  15.923  11.096   3.391  0.0669  0.0443 -0.1127
 3909W        W 7507   7.271   7.042   4.821  0.1277  0.0828  0.0236
 3910W        W 7508   5.688   0.738   8.089 -0.1421  0.3509  0.1033
 3911W        W 7509   7.710  11.890   7.952 -0.3242 -0.2956  0.0418
 3912W        W 7510   1.265  13.386  14.453 -0.0484 -0.3576 -0.1646
 3913W        W 7511  14.684   6.789  10.149  0.2973 -0.0878  0.1461
 3914W        W 7512   2.338   8.037  11.878  0.2091 -0.0050 -0.2066
 3915W        W 7513   4.706   0.210  15.850 -0.0675 -0.0235 -0.1237
 3916W        W 7514   9.140  13.615  13.790  0.2294  0.2269  0.0842
 3917W        W 7515  12.542  10.623   0.583 -0.0733 -0.2863  0.0344
 3918W        W 7516  15.834  14.858  14.320 -0.4506 -0.0425 -0.2003
 3919W        W 7517  12.267   2.548  15.167  0.0439  0.0620 -0.3426
 3920W        W 7518  13.618   7.451   6.980  0.0576 -0.1238 -0.0524
 3921W        W 7519  10.875   3.007   1.114  0.1431 -0.2915  0.0403
 3922W        W 7520   5.772  15.917  10.352 -0.0652  0.2497  0.0071
 3923W        W 7521  14.514  13.978   6.445 -0.0345  0.0306  0.5196
 3924W        W 7522   5.777   7.643  14.343  0.2331 -0.1436 -0.1166
 3925W        W 7523   8.557  12.553  15.246 -0.1011  0.0268 -0.4922
 3926W        W 7524   8.901   7.791   8.873  0.3484 -0.1751  0.2128
 3927W        W 7525   8.490  12.497  16.140  0.0459  0.0668 -0.2268
 3928W        W 7526   7.968   6.333   0.394 -0.2272  0.0018  0.1484
 3929W        W 7527  15.511   3.547  16.228 -0.2918  0.0568  0.0484
 3930W        W 7528  10.470   7.231   4.767 -0.0349  0.1881  0.0895
 3931W        W 7529   3.207  12.821  16.056  0.2645 -0.0142  0.5183
 3932W        W 7530   7.244  15.688  16.000 -0.3117 -0.1681  0.1439
 3933W        W 7531   3.466   3.969   2.119 -0.2449 -0.3993  0.0018
 3934W        W 7532  12.181   3.824   1.990  0.3348 -0.0244  0.1950
 3935W        W 7533   6.563  15.773  13.577  0.1262  0.1498  0.4494
 3936W        W 7534   4.175   3.213  10.279  0.1485  0.2787 -0.1790
 3937W        W 7535   8.259   2.464  13.496  0.3186 -0.0533  0.0545
 3938W        W 7536   0.282  15.910   5.050 -0.1897  0.1184 -0.0280
 3939W        W 7537   5.438  12.562   6.971  0.2564 -0.2736 -0.0109
 3940W        W 7538  11.794   5.731   1.191 -0.1771 -0.0183  0.0921
 3941W        W 7539   7.615  13.664  14.639  0.0955  0.0677 -0.2430
 3942W        W 7540  15.185   4.732   2.194  0.0609  0.3408  0.0234
 3943W        W 7541   9.015   0.874  10.251 -0.4174  0.2876  0.0432
 3944W        W 7542   5.613   4.015   4.537 -0.1644  0.2738 -0.0239
 3945W        W 7543   7.585   6.747  16.307 -0.0910  0.1335 -0.1533
 3946W        W 7544  14.205  13.371   3.111 -0.1001 -0.1078 -0.2146
 3947W        W 7545   8.412  12.145   8.497 -0.0965  0.0632  0.2254
 3948W        W 7546  11.651   5.218  12.033 -0.1040 -0.4166 -0.0111
 3949W        W 7547  14.715   7.450  12.769 -0.1499  0.0510 -0.0808
 3950W        W 7548  13.669  13.752  16.326  0.4650 -0.0663  0.1505
 3951W        W 7549  11.079  14.912   6.414 -0.3021  0.1217  0.1686
 3952W        W 7550   0.223   2.152  15.285 -0.0033 -0.2078  0.1291
 3953W        W 7551  15.492  11.551   4.812  0.0127  0.1131 -0.1433
 3954W        W 7552  11.927   8.039   1.609 -0.2736 -0.2432  0.1451
 3955W        W 7553   2.816  15.652   5.504 -0.5414 -0.1525 -0.2877
 3956W        W 7554  12.689   2.927   0.776  0.2962  0.0835  0.1115
 3957W        W 7555  16.021   3.717   3.960  0.0426  0.0952 -0.0560
 3958W        W 7556  15.139   0.002   0.375 -0.1309  0.2659  0.1827
 3959W        W 7557   7.369   1.900  11.371  0.0254  0.0224 -0.0436
 3960W        W 7558   0.263   0.346  12.389  0.1088 -0.1672  0.1959
 3961W        W 7559  11.305  13.989   4.392  0.0414  0.1988 -0.1376
 3962W        W 7560   1.392  12.573  10.530  0.2646 -0.2956 -0.0827
 3963W        W 7561   6.931  11.203   7.086 -0.0197  0.0475 -0.0901
 3964W        W 7562   1.175   0.172  14.224 -0.1675 -0.1894 -0.2218
 3965W        W 7563   2.960   2.940  13.060  0.0206 -0.0778 -0.0972
 3966W        W 7564   9.845   7.428   0.325 -0.0950  0.0059 -0.0635
 3967W        W 7565  10.532   6.452  11.002 -0.0482 -0.1150  0.2208
 3968W        W 7566   0.252  11.944   3.103 -0.1124  0.1401  0.1410
 3969W        W 7567   0.294   2.994   4.350  0.0851 -0.4048 -0.1810
 3970W        W 7568   3.053  15.975   1.580  0.0824 -0.1657  0.0403
 3971W        W 7569   2.030  14.379   6.882 -0.0695  0.0969 -0.1964
 3972W        W 7570   5.199   6.376  15.490 -0.0895  0.0723 -0.0902
 3973W        W 7571   9.742  15.532  11.721  0.0376  0.2229 -0.0635
 3974W        W 7572  16.385  14.545   1.020 -0.3520  0.3755 -0.1327
 3975W        W 7573   6.522  10.000   5.606  0.2288 -0.2279 -0.0428
 3976W        W 7574  14.962   1.758  14.724 -0.3732 -0.1468 -0.2094
 3977W        W 7575   1.815   3.399  12.319 -0.0699 -0.1361 -0.1728
 3978W        W 7576   8.636   7.955   7.709  0.1135  0.1826 -0.2932
 3979W        W 7577  11.320   8.405  15.636 -0.2349  0.0872 -0.3085
 3980W        W 7578  11.627  15.200  11.543  0.2397  0.1866  0.4335
 3981W        W 7579   3.483  15.736   4.219  0.1019 -0.1248  0.3296
 3982W        W 7580   3.947  13.773   5.780  0.0478  0.1384 -0.0693
 3983W        W 7581   4.410  12.044  12.063 -0.2754 -0.0194  0.0747
 3984W        W 7582  10.812   2.482   6.597  0.5297 -0.4814 -0.4346
 3985W        W 7583  10.051   9.983   2.989  0.0854 -0.1781  0.2099
 3986W        W 7584   3.437   2.176   1.103 -0.2877  0.2142 -0.1951
 3987W        W 7585  14.199   0.310   6.252  0.0427 -0.0441  0.2435
 3988W        W 7586   9.853   1.793   1.911  0.3347  0.2290 -0.3290
 3989W        W 7587  15.682  13.983   8.146  0.1836  0.1140 -0.1169
 3990W        W 7588   5.087   1.115   9.581 -0.0521  0.0057  0.0197
 3991W        W 7589   5.095   0.485   0.712 -0.2292  0.4179 -0.0455
 3992W        W 7590   8.043  14.317  11.329  0.0022  0.2581 -0.0798
 3993W        W 7591  10.258  14.898  13.679  0.1039  0.0580  0.1780
 3994W        W 7592  11.659   4.559   1.443 -0.0518  0.0272  0.2555
 3995W        W 7593   4.874   5.378   5.909 -0.1492 -0.2058  0.1464
 3996W        W 7594   9.433   9.652   3.247  0.0441  0.1399 -0.0024
 3997W        W 7595   3.322   1.941   4.675  0.3182 -0.3202  0.0942
 3998W        W 7596  10.656  11.755   1.664  0.0292 -0.0048 -0.1709
 3999W        W 7597  14.473   5.625  13.120  0.0139  0.0825  0.2429
 4000W        W 7598   7.013   9.753   0.699  0.0795 -0.1767 -0.0433
 4001W        W 7599  13.334  12.030   7.108 -0.1647  0.0538 -0.0520
 4002W        W 7600   3.852   2.710   6.395 -0.0251  0.1150  0.3924
 4003W        W 7601   8.459   8.505  10.880  0.2131  0.4149 -0.0627
 4004W        W 7602   6.926   9.881   5.865 -0.0316 -0.1617  0.0193
 4005W        W 7603  15.055   3.540   7.518  0.2906  0.1356  0.0728
 4006W        W 7604   7.295  15.813  10.964  0.2292 -0.0483 -0.0177
 4007W        W 7605  11.865  10.300  14.663 -0.0544  0.3274  0.1080
 4008W        W 7606   7.696   4.311  15.981  0.3227 -0.1607  0.1496
 4009W        W 7607   6.518  12.620  12.819  0.0481 -0.0206  0.2623
 4010W        W 7608   2.855   1.694  12.648  0.2160  0.0952  0.1209
 4011W        W 7609  15.348  14.635   4.992  0.1648 -0.0572 -0.0121
 4012W        W 7610   5.836  10.985   1.106  0.0661 -0.0839  0.2020
 4013W        W 7611  10.295   9.372  10.402 -0.0703  0.1343 -0.3017
 4014W        W 7612   0.538   0.503   5.702  0.0192  0.3123 -0.0731
 4015W        W 7613   0.532   6.645   6.837  0.3031 -0.0808 -0.0693
 4016W        W 7614   2.355   9.435   3.781  0.1661  0.1251 -0.1164
 4017W        W 7615   6.931   8.544  10.282  0.1143 -0.1564  0.0135
 4018W        W 7616   6.863  15.829   9.729  0.4900 -0.1111  0.1046
 4019W        W 7617   7.013  14.145  15.355 -0.0310  0.2389  0.2254
 4020W        W 7618   7.907  15.170  11.449 -0.0243 -0.0334 -0.0202
 4021W        W 7619   9.129   5.739   9.009 -0.1764 -0.1283 -0.0743
 4022W        W 7620   8.053   2.748   0.820  0.2752 -0.2652 -0.1788
 4023W        W 7621  10.733  14.993  15.416  0.1006 -0.0724 -0.3590
 4024W        W 7622  14.901   4.852   0.393  0.1202  0.1636 -0.1912
 4025W        W 7623  13.641  15.860  15.740 -0.0412  0.0131  0.2395
 4026W        W 7624   4.431  13.545   7.759 -0.2644 -0.1060 -0.0671
 4027W        W 7625   2.002   6.025   0.416  0.3003 -0.1931 -0.2527
 4028W        W 7626  11.394   6.438   6.059  0.1430  0.1055 -0.1251
 4029W        W 7627   3.141   2.450   4.451 -0.1877 -0.0377 -0.1690
 4030W        W 7628   1.536   0.669   8.586  0.0499  0.0009  0.0508
 4031W        W 7629   4.383   1.623  14.054  0.1760  0.2626  0.1078
 4032W        W 7630  12.194  12.389  11.132  0.0875  0.3325  0.0091
 4033W        W 7631   7.752   7.850  13.712 -0.0501  0.3709  0.0492
 4034W        W 7632   2.812  10.538  15.804  0.1848 -0.4054 -0.2411
 4035W        W 7633   6.358  11.409   0.459 -0.0510  0.0343  0.2305
 4036W        W 7634  15.684  12.290  12.188 -0.3564  0.0756 -0.1128
 4037W        W 7635   4.900   9.066  10.409  0.4238  0.1820 -0.0019
 4038W        W 7636   7.841  10.442   0.489  0.2848 -0.2629  0.0951
 4039W        W 7637  15.467   6.694   7.201  0.0876 -0.2448 -0.1697
 4040W        W 7638   7.500   1.521   0.606 -0.0459  0.1712  0.0879
 4041W        W 7639   7.670   2.672  11.136  0.0942 -0.2185 -0.1617
 4042W        W 7640   1.327   5.403   3.036  0.1669 -0.3029  0.0254
 4043W        W 7641   6.356   0.659  11.039 -0.0502 -0.0092 -0.2399
 4044W        W 7642   7.642   9.909   4.570 -0.0152 -0.2533 -0.1870
 4045W        W 7643   7.364   5.581  13.513  0.2123  0.1099  0.0710
 4046W        W 7644   8.043  15.814   1.452 -0.3264  0.0322  0.1088
 4047W        W 7645  12.465  12.070  11.543 -0.0788  0.0360  0.0200
 4048W        W 7646  12.179   0.016   9.667  0.1043 -0.0707 -0.1403
 4049W        W 7647   6.683  13.495   9.275  0.2832 -0.0771 -0.1336
 4050W        W 7648  12.842   9.050   4.848 -0.0914 -0.1027  0.0663
 4051W        W 7649   1.126  13.882   0.589 -0.0467 -0.1808  0.1253
 4052W        W 7650  10.715   5.463   8.525  0.0210  0.3547  0.0516
 4053W        W 7651   8.105   1.658   7.805 -0.0525 -0.2693  0.2463
 4054W        W 7652   9.633   1.854   9.986 -0.2307 -0.3101  0.0614
 4055W        W 7653  14.755   8.959  11.649 -0.1586 -0.0472 -0.1124
 4056W        W 7654  12.344   2.243  10.218 -0.0301  0.2611 -0.0390
 4057W        W 7655   6.165  11.949  15.715  0.0115  0.0948  0.2050
 4058W        W 7656   9.602   3.975   4.675 -0.1230  0.2723  0.1318
 4059W        W 7657   3.445  15.083   9.712  0.0163 -0.0152 -0.3744
 4060W        W 7658  15.940   4.488  13.404 -0.0025  0.1244 -0.1195
 4061W        W 7659  10.067   7.462   1.623 -0.1699 -0.4897 -0.5146
 4062W        W 7660   7.240   7.315  14.174  0.0527 -0.1891  0.0032
 4063W        W 7661  13.097  15.292   9.889 -0.1926 -0.0345 -0.1107
 4064W        W 7662   4.629  16.296   8.378  0.1647  0.1552  0.0185
 4065W        W 7663  11.920   3.674  14.390 -0.0412 -0.2847  0.0015
 4066W        W 7664   2.524   3.770  16.234 -0.2778 -0.0348  0.1415
 4067W        W 7665  16.129  12.006   9.451 -0.1721  0.0030  0.2279
 4068W        W 7666   0.018   1.697  13.205  0.3538  0.1408  0.1310
 4069W        W 7667   2.455   9.873   1.558  0.0997 -0.1018  0.1171
 4070W        W 7668  12.265   9.032  14.589 -0.2882  0.0380 -0.1760
 4071W        W 7669   0.414  15.362   8.105  0.0026 -0.2321  0.1411
 4072W        W 7670   6.687   0.280  15.622 -0.3288 -0.0028 -0.2771
 4073W        W 7671   5.382  10.987   0.277  0.2519 -0.2807 -0.2424
 4074W        W 7672  16.058   0.670  10.569 -0.0470  0.1878  0.2101
 4075W        W 7673  11.860  10.237   6.958  0.0177  0.2355 -0.0517
 4076W        W 7674  15.904   9.479  14.222  0.1792  0.0813 -0.0562
 4077W        W 7675   6.822  15.940  10.749  0.0897  0.0995 -0.1682
 4078W        W 7676   2.324   1.567   1.822  0.0389  0.1802 -0.0068
 4079W        W 7677   2.440   0.998   4.101 -0.0589 -0.0712 -0.1478
 4080W        W 7678   6.003  10.380  15.829 -0.0800 -0.2487  0.0015
 4081W        W 7679   3.542   8.494   0.257 -0.0192  0.0273  0.0829
 4082W        W 7680   2.461   6.414   3.348  0.2135  0.1284  0.2148
 4083W        W 7681   8.671  12.232   4.182  0.1479  0.0009  0.0236
 4084W        W 7682  15.440   7.927   0.940  0.3557  0.0706  0.0056
 4085W        W 7683   0.105   3.697   8.908 -0.0018 -0.3601 -0.4213
 4086W        W 7684   0.214   4.068  15.005 -0.0507  0.3849 -0.1629
 4087W        W 7685  12.472  14.210   2.952 -0.2118  0.0336  0.0666
 4088W        W 7686  15.088  12.840   3.656 -0.3139  0.1679 -0.0667
 4089W        W 7687  14.960   8.014   3.859  0.0956  0.1092  0.0070
 4090W        W 7688  12.637  15.598  12.440 -0.1745  0.0453 -0.1104
 4091W        W 7689  10.440   4.196  12.661  0.0061  0.1167  0.1892
 4092W        W 7690   4.286   9.516   4.781 -0.2258  0.2569 -0.1040
 4093W        W 7691   8.615   7.465  16.097  0.0340  0.1401  0.2296
 4094W        W 7692   4.297   9.381  13.080 -0.2442  0.1296  0.2090
 4095W        W 7693   4.010   7.075   0.344 -0.0819 -0.0673  0.4232
 4096W        W 7694  16.088  12.835  12.140  0.0647  0.0032 -0.1662
 4097W        W 7695  13.885   5.215   0.513  0.1611  0.1084 -0.2900
 4098W        W 7696   1.257   3.105   7.248  0.0288 -0.2110  0.2219
 4099W        W 7697   9.469  14.704   1.643 -0.2355 -0.0278  0.2196
 4100W        W 7698  12.140   8.159   3.362  0.2154 -0.1086 -0.2023
 4101W        W 7699   2.316   9.082   3.393 -0.2422 -0.0721  0.0368
 4102W        W 7700   4.726  10.470   5.765  0.0140 -0.1065  0.0716
 4103W        W 7701  13.230   6.861   0.151  0.2542  0.0223  0.2026
 4104W        W 7702   8.598  15.172  11.043 -0.1918  0.0607  0.1579
 4105W        W 7703   4.886   7.936   8.281  0.1452 -0.2150 -0.0802
 4106W        W 7704  13.772  14.643  15.288  0.1339  0.1506 -0.1294
 4107W        W 7705  12.046  14.180   0.203 -0.4102 -0.0794 -0.1718
 4108W        W 7706  12.861   2.824   9.791 -0.0578 -0.3348 -0.2760
 4109W        W 7707  14.385  12.280   2.243 -0.0759 -0.1826  0.3607
 4110W        W 7708   5.942   2.771  15.785  0.2264 -0.0496 -0.2438
 4111W        W 7709   0.024   0.053   3.873 -0.1090 -0.1477 -0.1074
 4112W        W 7710  15.194  10.192   3.789 -0.1642  0.3125 -0.0094
 4113W        W 7711   4.217   8.847  12.984 -0.0628  0.0656 -0.2208
 4114W        W 7712   5.692   9.986  16.037 -0.1989  0.1861  0.0408
 4115W        W 7713   2.300   5.414   9.461 -0.2587 -0.0106  0.0460
 4116W        W 7714  13.005   8.958   5.355 -0.0042  0.0940  0.1067
 4117W        W 7715   0.982  11.221   7.952  0.2646  0.0539  0.2545
 4118W        W 7716  10.208   3.563   1.257 -0.1911  0.0069 -0.1241
 4119W        W 7717  14.254   5.326  16.272 -0.1001  0.2085 -0.0594
 4120W        W 7718  11.578  10.560  12.166  0.1235  0.2285 -0.0188
 4121W        W 7719  11.158  13.037   7.999  0.0145  0.2312 -0.1939
 4122W        W 7720   9.290  12.723   8.210 -0.0993 -0.0310  0.0558
 4123W        W 7721   6.832   4.888   7.761 -0.0245  0.0620 -0.1002
 4124W        W 7722   6.908   4.913   0.562 -0.3169  0.0411 -0.0601
 4125W        W 7723  12.587   6.078   8.896  0.1508 -0.0049  0.1358
 4126W        W 7724  14.503   9.815   8.010 -0.2449  0.1774 -0.1929
 4127W        W 7725  14.796  12.307   2.998 -0.1878  0.1999 -0.1234
 4128W        W 7726  13.256  11.940  15.078  0.2411 -0.0757 -0.2250
 4129W        W 7727   7.687  15.968   4.462  0.0880  0.1691  0.2843
 4130W        W 7728   8.698   1.776   1.834  0.0519 -0.0976  0.0888
 4131W        W 7729  10.762  11.602   4.666 -0.0223  0.1363 -0.1476
 4132W        W 7730   4.050   6.945  10.680 -0.1240 -0.1303  0.0669
 4133W        W 7731   4.124   5.653  11.102  0.5444 -0.1158  0.0760
 4134W        W 7732   2.437   3.863   7.420 -0.0553 -0.1425  0.0493
 4135W        W 7733   7.606  13.731   2.456 -0.0260 -0.1430 -0.0311
 4136W        W 7734  15.391  14.216   8.532  0.3962  0.2813  0.1197
 4137W        W 7735  11.438   7.267   0.529 -0.3056  0.0425 -0.0094
 4138W        W 7736   0.453  13.135  15.372  0.2406 -0.0211  0.2858
 4139W        W 7737  10.967  11.482   5.641 -0.0043  0.1894  0.3062
 4140W        W 7738  15.037  16.207  10.655  0.0686 -0.0218  0.2662
 4141W        W 7739   8.228   0.207   2.006  0.0752 -0.1276  0.0216
 4142W        W 7740  13.638   3.362   4.184 -0.0640 -0.2054 -0.0677
 4143W        W 7741  11.853  13.189   3.254 -0.2276  0.3411  0.0864
 4144W        W 7742   4.310  11.810   0.819 -0.3709 -0.3626  0.4311
 4145W        W 7743  11.929   1.317   5.702  0.0134  0.1413 -0.4203
 4146W        W 7744   6.412   6.371   4.465 -0.1048  0.0578  0.0791
 4147W        W 7745   8.316   7.458   1.819  0.0308  0.1521 -0.1151
 4148W        W 7746  15.142   9.925  14.789  0.1280 -0.4033  0.0587
 4149W        W 7747  15.950   0.742  15.671  0.0650  0.0247 -0.0645
 4150W        W 7748   9.692   3.289   3.310  0.3778 -0.1214  0.1264
 4151W        W 7749  13.243   8.827  13.192 -0.2559 -0.1499  0.3107
 4152W        W 7750   8.447   7.030   7.478 -0.0751  0.1086  0.1258
 4153W        W 7751   8.694  13.464   3.663  0.0942  0.3330  0.0661
 4154W        W 7752   0.813   3.659   9.412 -0.1108  0.1198  0.1972
 4155W        W 7753   3.887   1.130   4.241  0.2610  0.0678 -0.1674
 4156W        W 7754   6.385  13.947   4.446  0.0925 -0.1696 -0.0916
 4157W        W 7755   2.089   8.231  14.010 -0.1470  0.1652 -0.0498
 4158W        W 7756   2.783   3.459  11.961 -0.1629  0.0301 -0.2975
 4159W        W 7757   2.363   1.354   2.983  0.0165 -0.2327 -0.4915
 4160W        W 7758   9.297  11.102   0.531  0.0351 -0.1497  0.1366
 4161W        W 7759  11.440   6.333   6.998  0.1536 -0.1707 -0.1640
 4162W        W 7760   2.363   9.400   2.474 -0.2313  0.0156  0.1789
 4163W        W 7761   1.797   9.505   3.982 -0.3479  0.2211 -0.3472
 4164W        W 7762  13.742   6.133   0.495  0.3305 -0.1296  0.0706
 4165W        W 7763   5.946   5.692   7.571  0.2963 -0.1510 -0.1236
 4166W        W 7764   9.489  16.206   3.364  0.1474 -0.0053  0.0468
 4167W        W 7765   3.597  10.098   9.862 -0.0578  0.0040 -0.0162
 4168W        W 7766   5.188   7.946   7.845 -0.1764  0.0140  0.1758
 4169W        W 7767  13.575   1.349   3.853  0.1113  0.0425 -0.0572
 4170W        W 7768   4.183  14.731   6.341 -0.0951  0.1944 -0.0263
 4171W        W 7769   4.958  11.126   2.629  0.2823  0.0394  0.1460
 4172W        W 7770   2.422   4.429   8.648 -0.0352  0.3543 -0.0262
 4173W        W 7771   2.417   4.361   7.617  0.0997  0.0706  0.2015
 4174W        W 7772   2.291   9.486   0.255  0.1781 -0.1071 -0.0905
 4175W        W 7773  12.515   9.342   0.006  0.0022 -0.2025 -0.3646
 4176W        W 7774   4.810  13.070   0.404  0.0510 -0.1900 -0.0032
 4177W        W 7775  14.251   9.744  13.716  0.2214 -0.0885 -0.2436
 4178W        W 7776   2.684   6.781   7.024 -0.1794 -0.0394 -0.0802
 4179W        W 7777  10.087  13.655  10.484  0.3102  0.1233 -0.0628
 4180W        W 7778   3.421  11.475  15.696  0.0007  0.3373 -0.0940
 4181W        W 7779  16.346   8.644  13.810 -0.2964 -0.0375 -0.0360
 4182W        W 7780   2.886   8.295   8.719 -0.1233  0.0966 -0.0623
 4183W        W 7781   2.339   6.405  15.949  0.0645  0.0247  0.0163
 4184W        W 7782  12.913   7.224  15.384  0.3211  0.1383 -0.0950
 4185W        W 7783  13.237   9.880  13.766 -0.0956 -0.0826 -0.0251
 4186W        W 7784  15.155   9.995   8.048 -0.0454 -0.2374  0.0482
 4187W        W 7785   7.648  13.291   2.162  0.0786 -0.3765  0.1485
 4188W        W 7786  13.266  15.435   5.151 -0.0974  0.2598  0.2083
 4189W        W 7787   3.457   7.639   6.008  0.1589  0.0848 -0.0704
 4190W        W 7788  12.812   6.742   6.188 -0.0533 -0.2314  0.1114
 4191W        W 7789  14.656  13.696  15.123 -0.0422 -0.1662 -0.1152
 4192W        W 7790  13.802  15.791   1.076 -0.1196 -0.0983  0.2483
 4193W        W 7791  11.734   6.638  10.520 -0.2833  0.1365  0.1002
 4194W        W 7792  12.599   1.139   1.216 -0.0595 -0.2544 -0.0511
 4195W        W 7793   8.177   3.573   0.226  0.0589 -0.0195 -0.0543
 4196W        W 7794  13.914  12.671   3.022  0.1173  0.0073 -0.0388
 4197W        W 7795   5.462   3.288   7.360 -0.4985  0.1081 -0.1169
 4198W        W 7796  12.502   9.248  12.755 -0.2547  0.1552 -0.0902
 4199W        W 7797   8.194  16.286   1.611 -0.1275  0.0726 -0.0342
 4200W        W 7798   7.826  13.743   9.894 -0.2294  0.2897 -0.0474
 4201W        W 7799  16.064   5.645   2.815 -0.2866 -0.0948 -0.1470
 4202W        W 7800  15.201  15.231  15.548  0.1964 -0.2197 -0.1490
 4203W        W 7801   2.338   5.360  13.722 -0.0088  0.0150  0.1602
 4204W        W 7802  12.921  15.130   1.216 -0.0464 -0.0072  0.0754
 4205W        W 7803   6.042  14.998  10.585  0.0347 -0.0403 -0.1127
 4206W        W 7804   9.062  15.631  15.641 -0.1683 -0.1892 -0.0631
 4207W        W 7805  13.520   5.358   1.634  0.0824  0.2616 -0.2651
 4208W        W 7806   6.990  15.393   1.520 -0.0436 -0.2250  0.1303
 4209W        W 7807  15.988  14.511  11.689 -0.0949 -0.0142 -0.1208
 4210W        W 7808   2.101   9.151   1.131  0.2873  0.1863 -0.3099
 4211W        W 7809   5.797   9.657   8.205 -0.0123  0.3357 -0.2650
 4212W        W 7810   1.803  15.623   6.512  0.0074  0.0666  0.0083
 4213W        W 7811  16.052  13.302  11.045  0.0142  0.1259 -0.1798
 4214W        W 7812  10.270  11.599  10.578 -0.1492  0.0273  0.1753
 4215W        W 7813   2.168   1.472  10.056  0.0036 -0.0206 -0.0024
 4216W        W 7814   6.434   8.535   0.810  0.0205 -0.0259 -0.0095
 4217W        W 7815   0.695   6.889   9.464  0.1680  0.1281 -0.2856
 4218W        W 7816   6.584   9.086   0.919 -0.1318  0.0119 -0.1109
 4219W        W 7817   5.808   3.120   4.433 -0.1108 -0.2661 -0.0637
 4220W        W 7818  14.857  14.146  13.746  0.3108 -0.3577 -0.3402
 4221W        W 7819   6.585  14.622   1.562 -0.2211 -0.2017  0.2336
 4222W        W 7820  15.883  10.576   6.047 -0.0379 -0.1812 -0.0958
 4223W        W 7821  12.960  10.129   4.023 -0.0353  0.0438  0.2811
 4224W        W 7822  13.818   7.451   5.544 -0.0966  0.2918  0.0415
 4225W        W 7823  12.145   3.174  10.602  0.2981 -0.0618 -0.0354
 4226W        W 7824   7.751  12.177   2.806 -0.0315 -0.0127 -0.2075
 4227W        W 7825  14.092  10.665   0.045 -0.0698 -0.1925  0.3199
 4228W        W 7826  14.409  13.817   8.882 -0.4633 -0.0971 -0.0429
 4229W        W 7827   6.858   9.548   6.631 -0.1197 -0.0717  0.2796
 4230W        W 7828  12.254  13.052   7.136  0.0046  0.0790 -0.0623
 4231W        W 7829  14.646  16.022  14.667  0.0309  0.1160 -0.1318
 4232W        W 7830  14.842   3.036   3.877  0.0840  0.1707 -0.0895
 4233W        W 7831   4.353  14.755  14.739 -0.1365 -0.0280 -0.0545
 4234W        W 7832   8.574  10.457   5.730  0.0411  0.2632 -0.0509
 4235W        W 7833   6.271   5.799  15.596 -0.1649 -0.0511 -0.0169
 4236W        W 7834  15.984   8.516   9.596 -0.0097 -0.0039  0.1667
 4237W        W 7835  14.178   0.152   0.193 -0.0006 -0.1203 -0.0736
 4238W        W 7836  12.799   7.832  10.268  0.1451 -0.1087  0.0936
 4239W        W 7837   6.239   2.735   5.677 -0.1191  0.0458  0.2199
 4240W        W 7838  14.681  16.032   4.706 -0.2408  0.1761  0.0897
 4241W        W 7839  16.278   9.306  11.722 -0.1196  0.4336 -0.1182
 4242W        W 7840   3.093  12.818   3.814 -0.0966  0.0614 -0.0634
 4243W        W 7841   9.471  10.319   0.813 -0.0310  0.1654  0.0110
 4244W        W 7842  12.127   6.283   6.734 -0.2458  0.2295 -0.0479
 4245W        W 7843   7.509  10.812   7.038  0.1143 -0.0446 -0.0905
 4246W        W 7844   2.250   8.148   7.710 -0.2031  0.1728  0.1862
 4247W        W 7845   6.421  12.240  13.621  0.2844 -0.2315 -0.0921
 4248W        W 7846   0.446  14.686  14.194 -0.0361  0.1251 -0.0875
 4249W        W 7847   8.979   9.804   5.191 -0.0201 -0.0565  0.2208
 4250W        W 7848   0.749   5.217   4.656 -0.3331  0.0432 -0.0088
 4251W        W 7849  15.317  12.960  13.988 -0.3259  0.1469 -0.1274
 4252W        W 7850  13.494  12.723  11.175 -0.0641 -0.1139  0.0380
 4253W        W 7851   3.636   4.034   3.118 -0.0381  0.2112  0.2565
 4254W        W 7852  12.515   5.054   8.935 -0.3451  0.2838 -0.1101
 4255W        W 7853   2.443   5.882   7.272  0.4668  0.0365  0.0400
 4256W        W 7854  15.176  16.050   0.798 -0.2467 -0.0145 -0.2888
 4257W        W 7855   9.976   7.183  11.175 -0.3882 -0.1938  0.1875
 4258W        W 7856   5.068  14.467  16.069 -0.0370 -0.1889 -0.1360
 4259W        W 7857  14.682  16.270   8.256  0.0593  0.0825  0.1938
 4260W        W 7858   2.272   5.926   3.449  0.4279 -0.0078 -0.0298
 4261W        W 7859   6.330   3.159  10.277  0.1132 -0.2590  0.1773
 4262W        W 7860   7.293   1.704  12.654  0.0832 -0.1088 -0.1053
 4263W        W 7861   3.287  13.714   3.235 -0.2732  0.1217  0.1972
 4264W        W 7862  15.261   0.874   1.285 -0.1296 -0.0629  0.3676
 4265W        W 7863   3.032   3.721  16.363  0.0814  0.0056  0.1600
 4266W        W 7864   8.776   5.082   7.615  0.2749 -0.0655  0.0991
 4267W        W 7865  13.690  10.797  14.215 -0.0163 -0.2633 -0.1498
 4268W        W 7866   7.252  13.085   3.640 -0.1070 -0.0864 -0.0232
 4269W        W 7867  10.843   4.781  15.969 -0.1479 -0.0490  0.0433
 4270W        W 7868  11.549   2.376   7.077  0.2950 -0.2004  0.0228
 4271W        W 7869  13.580  13.931   5.520  0.0407  0.1447 -0.0760
 4272W        W 7870  12.050   6.283  16.010 -0.3370 -0.0429  0.1442
 4273W        W 7871   7.244   9.501  12.448  0.1392  0.0272  0.0784
 4274W        W 7872   5.855   6.696   3.933 -0.0068 -0.0249 -0.2047
 4275W        W 7873  15.975  15.650   7.541  0.0395 -0.0557  0.0556
 4276W        W 7874   3.654   8.589  14.156  0.0457  0.0169 -0.0828
 4277W        W 7875   4.983   1.966   2.387  0.2503 -0.0869 -0.0705
 4278W        W 7876   6.246   7.083   1.762  0.1354 -0.0788 -0.0281
 4279W        W 7877  14.306   1.681   9.222  0.1679 -0.4872  0.0318
 4280W        W 7878  13.988  12.501   2.537 -0.2655  0.1234 -0.2801
 4281W        W 7879   4.760   8.272   0.457  0.2253  0.0322  0.0233
 4282W        W 7880   1.926  16.028  15.851  0.1650  0.0810  0.1495
 4283W        W 7881   5.196   4.165   5.377  0.0790  0.1044  0.0744
 4284W        W 7882  15.629   1.764   1.787  0.2240  0.0127 -0.0480
 4285W        W 7883  13.339  14.513   2.981 -0.0004 -0.0676 -0.0905
 4286W        W 7884   9.373   4.080   7.740  0.0484 -0.2191  0.1990
 4287W        W 7885  14.061   1.577   9.999 -0.2475  0.2137 -0.0806
 4288W        W 7886   0.990  14.220   6.520  0.2727 -0.0106 -0.0223
 4289W        W 7887   9.994  12.533   6.175 -0.0915 -0.1636  0.0998
 4290W        W 7888  15.780   2.472   7.905 -0.1930  0.1418  0.3352
 4291W        W 7889   3.548   0.184  10.488 -0.0186  0.1858 -0.0908
 4292W        W 7890   0.021  15.860  15.901  0.2744  0.3981 -0.1141
 4293W        W 7891   4.619  12.596   5.813  0.0872 -0.0470  0.0368
 4294W        W 7892  13.182   7.409  10.895  0.1586  0.0086 -0.1069
 4295W        W 7893  11.991   1.166  16.239 -0.0813 -0.2811 -0.1984
 4296W        W 7894  11.553   9.806   3.903 -0.1236  0.4391 -0.3958
 4297W        W 7895  13.836  13.805  13.901 -0.0852  0.0132 -0.0604
 4298W        W 7896  13.388   9.982  13.116 -0.1694  0.0100 -0.5011
 4299W        W 7897  14.944  12.174  10.154  0.2064 -0.2089 -0.0807
 4300W        W 7898  13.554   0.972   0.740  0.2838  0.1791 -0.1749
 4301W        W 7899  14.602  11.558   6.358  0.3892  0.3214  0.0288
 4302W        W 7900   1.012  11.673   5.838 -0.2880 -0.4874  0.3177
 4303W        W 7901   2.838  11.246   5.928  0.1990  0.0861 -0.4035
 4304W        W 7902   0.697   9.972   3.934  0.1058 -0.1199  0.1094
 4305W        W 7903   7.372   6.306  15.282  0.1210 -0.0114  0.0157
 4306W        W 7904   8.197  11.964   5.364  0.1576  0.2030  0.0100
 4307W        W 7905  15.654  15.840   4.924  0.0120  0.1160  0.0658
 4308W        W 7906   2.051   4.031  15.805 -0.1339 -0.1360  0.0832
 4309W        W 7907  12.021  13.754  11.452 -0.3117  0.0095 -0.0439
 4310W        W 7908   1.003  12.187   5.833  0.3408  0.1933  0.2479
 4311W        W 7909  15.178   3.559   1.784 -0.0474  0.0993  0.2480
 4312W        W 7910   3.654  13.744   4.922 -0.1097  0.1046 -0.1478
 4313W        W 7911   8.242  11.207  10.126 -0.2011 -0.2336 -0.0175
 4314W        W 7912   4.503   5.984   1.115 -0.0971  0.1532 -0.1286
 4315W        W 7913  15.540  12.242  10.196 -0.0225 -0.3100 -0.1610
 4316W        W 7914  10.630   8.566   6.894  0.1916 -0.3006  0.1407
 4317W        W 7915  15.659   8.199   4.466 -0.0084 -0.3159 -0.0793
 4318W        W 7916  11.992  10.181  15.947  0.0108  0.1461 -0.1519
 4319W        W 7917  16.096  15.588  10.577 -0.0580 -0.0648  0.1983
 4320W        W 7918   5.615   6.429  11.998  0.1158 -0.0049  0.3882
 4321W        W 7919   6.083   7.445   0.877  0.0718 -0.1585  0.0638
 4322W        W 7920   8.239   3.978   3.314 -0.1604 -0.2199  0.0498
 4323W        W 7921  16.365   8.632  11.090  0.1681 -0.1966 -0.3939
 4324W        W 7922   8.827   6.970  16.221  0.2936 -0.0690 -0.2148
 4325W        W 7923   6.022   6.216   4.754 -0.1486 -0.1587 -0.4135
 4326W        W 7924  13.754  15.443  12.957  0.2567 -0.0061 -0.0952
 4327W        W 7925   7.418   5.511   8.261 -0.1893 -0.0001 -0.2271
 4328W        W 7926  15.436  14.918  15.855  0.4118 -0.0870  0.0497
 4329W        W 7927   6.051  16.298  11.462  0.0502 -0.2152  0.0296
 4330W        W 7928   7.676   6.240  16.374 -0.2783  0.0098 -0.1460
 4331W        W 7929  14.197  14.083   7.995  0.0702 -0.0914  0.2774
 4332W        W 7930   6.664   3.506   9.962  0.0339  0.0506  0.1041
 4333W        W 7931  16.178  10.271  10.927  0.2136 -0.0111  0.3309
 4334W        W 7932  14.200   2.641   8.630  0.1549  0.2488  0.1082
 4335W        W 7933  10.692  10.868  12.698 -0.1142 -0.0036  0.2079
 4336W        W 7934  15.326   2.292  10.178  0.1403  0.2299  0.0937
 4337W        W 7935   9.432   4.633   1.856 -0.0326 -0.3638 -0.0842
 4338W        W 7936   4.365   2.494  15.777  0.0051 -0.2696 -0.2087
 4339W        W 7937   9.488  12.094  12.925 -0.0289  0.2150 -0.3242
 4340W        W 7938   6.101   8.499   3.948 -0.0880 -0.1416 -0.2261
 4341W        W 7939  14.683  14.433  12.013  0.1401 -0.0906  0.1747
 4342W        W 7940   8.099   0.753  15.417 -0.2790 -0.4952  0.2015
 4343W        W 7941   0.045   1.843   2.407  0.1652 -0.0332 -0.1413
 4344W        W 7942  13.327  16.075   7.189  0.1360 -0.2257 -0.0681
 4345W        W 7943  14.312   0.427  13.524  0.2129 -0.0055 -0.0582
 4346W        W 7944   6.326   5.545   3.733 -0.0299  0.3350 -0.3279
 4347W        W 7945   3.796   6.395  16.379 -0.0451 -0.1122 -0.0282
 4348W        W 7946   9.159  14.995   4.363  0.0126  0.0800  0.0962
 4349W        W 7947   2.121  14.491  11.191  0.1571  0.2808  0.0301
 4350W        W 7948   3.371   9.696   2.606  0.0125  0.1317  0.0371
 4351W        W 7949   2.360   5.727   2.188  0.1226 -0.0366 -0.0534
 4352W        W 7950   4.377   9.098  12.022 -0.0621  0.2498 -0.1184
 4353W        W 7951  11.797   6.342   3.641 -0.0629  0.0064  0.1721
 4354W        W 7952   9.326  12.502   5.818  0.2571  0.1039  0.0588
 4355W        W 7953  11.900   1.990   9.515  0.0338  0.1721  0.2770
 4356W        W 7954   8.679  14.677  11.479  0.0598  0.1002 -0.0710
 4357W        W 7955  14.523  14.452   8.157  0.0891  0.0219 -0.0005
 4358W        W 7956   3.310   5.422   8.384  0.1398 -0.0084 -0.0147
 4359W        W 7957   3.225   0.016   5.691  0.0289  0.0164  0.0288
 4360W        W 7958   5.148   0.728  12.472  0.0577  0.0107 -0.2013
 4361W        W 7959   3.826   9.463  12.950 -0.2336 -0.0194 -0.1761
 4362W        W 7960   3.882  13.824  16.293 -0.0722 -0.4542 -0.0467
 4363W        W 7961   6.558   1.105   9.375  0.2233 -0.1178 -0.3889
 4364W        W 7962   1.769   2.002  14.660 -0.1102  0.0443  0.3260
 4365W        W 7963  13.803  13.445   8.736 -0.0000 -0.0337  0.1072
 4366W        W 7964  12.274  10.617   4.936  0.2205  0.3892  0.4374
 4367W        W 7965   2.602  12.446   6.544  0.1262  0.0017  0.0401
 4368W        W 7966  11.951  15.361   6.741 -0.2476 -0.0273 -0.1059
 4369W        W 7967   8.615   2.424   9.174  0.3827 -0.0795  0.0849
 4370W        W 7968   6.714   1.829  12.331  0.0318  0.0750 -0.1200
 4371W        W 7969   0.210   9.918   7.040  0.0072 -0.1354 -0.0975
 4372W        W 7970   3.693   1.558   5.661 -0.0690 -0.1645  0.0904
 4373W        W 7971  10.841   3.137  11.747  0.0347 -0.0477 -0.1235
 4374W        W 7972  13.578   5.991  11.488 -0.0028  0.3617  0.0922
 4375W        W 7973  15.026   6.635   1.266  0.0843  0.1341 -0.2157
 4376W        W 7974   8.488  11.305   9.697  0.0846 -0.1078  0.2680
 4377W        W 7975   1.337   6.460   2.444 -0.2060 -0.0716  0.1029
 4378W        W 7976   1.166  13.782  13.715  0.2110  0.2015 -0.0291
 4379W        W 7977  12.240   7.520  14.072 -0.0923 -0.3382  0.2200
 4380W        W 7978  13.389   9.865   3.868 -0.2498  0.1903  0.1762
 4381W        W 7979   2.269  10.149   7.731 -0.0062 -0.2140 -0.0092
 4382W        W 7980  13.140  12.735   0.238  0.4348 -0.0166  0.2315
 4383W        W 7981   4.614   4.172  14.046  0.1968 -0.1005 -0.1594
 4384W        W 7982   7.461  15.574  13.234  0.0357  0.1009 -0.0563
 4385W        W 7983   2.251   7.039   4.361  0.0165 -0.1709 -0.2387
 4386W        W 7984   1.387   3.169  14.134  0.1184 -0.0339  0.1812
 4387W        W 7985  12.021  12.332   5.984 -0.1608  0.1588  0.1070
 4388W        W 7986   5.727   7.396   7.109 -0.2445 -0.0251 -0.1035
 4389W        W 7987   3.429   3.874  16.039 -0.1883 -0.0745 -0.3124
 4390W        W 7988  13.935   9.834   3.834 -0.0403 -0.1271  0.1810
 4391W        W 7989  13.429   2.613  13.336  0.3160  0.0039 -0.3405
 4392W        W 7990   1.014   1.108  10.548 -0.0826 -0.1189 -0.2749
 4393W        W 7991  11.878  15.965  11.695  0.2192 -0.3169 -0.0990
 4394W        W 7992  11.164  14.202   2.336  0.2544  0.0289 -0.4363
 4395W        W 7993  11.661   9.637   6.909 -0.1157 -0.1591  0.2759
 4396W        W 7994  13.607   6.913  12.104  0.4183  0.1440 -0.1048
 4397W        W 7995  14.121   5.636  14.717  0.1385  0.2081  0.3171
 4398W        W 7996   3.383  11.517   2.715  0.2947 -0.0748  0.0345
 4399W        W 7997   4.555   5.236  10.252  0.0161 -0.1529  0.0611
 4400W        W 7998  13.900   7.887   6.878 -0.0859  0.1898  0.3419
 4401W        W 7999  14.528  12.031   2.674  0.2454  0.2077  0.3271
 4402W        W 8000   5.856   0.890  15.748  0.1004 -0.1647  0.0173
 4403W        W 8001  10.669   9.636   2.927  0.1549  0.1060  0.0993
 4404W        W 8002  14.898   2.683   1.072 -0.3049 -0.0918 -0.1164
 4405W        W 8003  15.070  16.179   2.139  0.1550  0.4585  0.0822
 4406W        W 8004  13.609  12.141   4.353  0.1475 -0.2596 -0.0220
 4407W        W 8005  14.149  10.566  10.390  0.1109 -0.4333  0.0413
 4408W        W 8006  14.265  11.735  12.059  0.0825 -0.0153  0.0758
 4409W        W 8007  12.285  11.388  13.805  0.3196  0.0850 -0.2706
 4410W        W 8008  12.846   5.299  15.299  0.0403 -0.0171  0.2254
 4411W        W 8009  13.064  10.544  12.531 -0.2870 -0.0473  0.1388
 4412W        W 8010  10.407  10.370  11.876  0.0607 -0.0963 -0.0632
 4413W        W 8011   9.668   8.274   2.603 -0.1470  0.1079  0.3317
 4414W        W 8012  15.903   4.256   4.110  0.3305  0.0397 -0.0747
 4415W        W 8013  10.723  14.780   4.532 -0.2021  0.2691 -0.0960
 4416W        W 8014  11.643  15.283   5.717 -0.3639  0.1165 -0.1350
 4417W        W 8015   9.041  11.040  13.599  0.2016 -0.1511  0.0233
 4418W        W 8016  16.356  15.107   1.882  0.1023  0.0407  0.2037
 4419W        W 8017  11.348   6.360   6.520 -0.0102  0.0487  0.0219
 4420W        W 8018   9.522  10.082   2.981  0.1177 -0.1842  0.1181
 4421W        W 8019  13.584  12.364   8.812 -0.0044  0.2366 -0.1159
 4422W        W 8020   5.144  14.302   1.423 -0.0680  0.1874  0.1536
 4423W        W 8021   7.584   7.129   6.028  0.2210 -0.1283  0.3576
 4424W        W 8022  10.585  11.370   0.198  0.0320  0.1630 -0.2262
 4425W        W 8023   2.404   6.229   9.329 -0.0668 -0.2321 -0.2450
 4426W        W 8024   4.688  15.701  10.103 -0.0008 -0.2021  0.1725
 4427W        W 8025   2.033  14.031  13.097  0.0328 -0.0845 -0.2611
 4428W        W 8026   5.731   3.012  11.849  0.0913 -0.0647 -0.0642
 4429W        W 8027   2.344  12.167  10.826  0.0137 -0.0945  0.1193
 4430W        W 8028   9.283   2.034  10.434  0.1228 -0.1867  0.0431
 4431W        W 8029  16.171   2.600   4.597 -0.2894  0.0080 -0.2665
 4432W        W 8030   4.629   2.096  11.625 -0.3028 -0.1760 -0.5294
 4433W        W 8031  10.406  15.976   8.312 -0.2337  0.0240  0.1201
 4434W        W 8032  10.258  12.265  11.264 -0.0557  0.0158 -0.0226
 4435W        W 8033   2.833   1.978  13.273  0.3914 -0.0871 -0.2104
 4436W        W 8034  12.053  15.897   7.542 -0.0840 -0.0732 -0.2135
 4437W        W 8035   2.229   1.346   6.299  0.0313 -0.0313  0.2188
 4438W        W 8036   5.308  13.968   8.168 -0.1373  0.0228 -0.3982
 4439W        W 8037  15.228  16.037   4.742 -0.0002 -0.2050  0.1499
 4440W        W 8038  10.569  10.840   2.910  0.0696 -0.1679  0.2801
 4441W        W 8039   8.558   8.856  15.295  0.0948  0.0391 -0.3243
 4442W        W 8040  13.965  12.082   5.285  0.4030 -0.0071 -0.0233
 4443W        W 8041  11.652  12.381   1.509  0.0139 -0.2340 -0.0630
 4444W        W 8042   9.730   7.424  10.321 -0.1066  0.2830 -0.0785
 4445W        W 8043   0.561  10.308   3.523  0.2351 -0.1821 -0.0337
 4446W        W 8044  12.873   3.035   6.941 -0.0504  0.1437  0.1748
 4447W        W 8045   1.173  14.162  13.334  0.3834  0.2242  0.1058
 4448W        W 8046   0.212   9.841   4.287  0.1063  0.0623 -0.0582
 4449W        W 8047  13.238   4.592   1.171  0.0405 -0.1868  0.0412
 4450W        W 8048   1.142   4.341  16.064 -0.0531 -0.2392  0.1637
 4451W        W 8049   3.237   5.593   6.293  0.2691  0.2793 -0.2444
 4452W        W 8050  15.448   3.409  15.271 -0.1507 -0.2298  0.1480
 4453W        W 8051  11.821   2.058  12.811  0.3754 -0.0701  0.3342
 4454W        W 8052   7.039   7.062   0.825  0.2502  0.3820 -0.0552
 4455W        W 8053   2.160   1.152   7.840  0.1011 -0.0206 -0.0963
 4456W        W 8054  11.597   0.928   7.015  0.0604  0.0099 -0.0026
 4457W        W 8055   7.465   9.001   7.753 -0.1306 -0.0223 -0.1496
 4458W        W 8056  16.011   8.945  11.314 -0.0553  0.2650  0.0256
 4459W        W 8057  10.755   8.563   0.498 -0.0174 -0.1294 -0.4436
 4460W        W 8058  10.446  12.140  15.001 -0.1381  0.2375  0.0484
 4461W        W 8059  11.735   6.753   5.749 -0.0882  0.1814 -0.1683
 4462W        W 8060   1.384   4.832   6.430  0.1318 -0.1490  0.0511
 4463W        W 8061   7.318   1.092   0.277 -0.0888  0.0452  0.0312
 4464W        W 8062   2.541   2.779  14.168  0.0298  0.3806 -0.0985
 4465W        W 8063   8.328  14.359   2.926 -0.1445 -0.1613  0.2423
 4466W        W 8064  12.281   2.018  15.738  0.0705 -0.2370 -0.2497
 4467W        W 8065  10.074   1.443   6.706 -0.1151 -0.3787 -0.0507
 4468W        W 8066   6.875   5.819   7.683  0.1476  0.4826 -0.0735
 4469W        W 8067  14.750   0.811   2.218 -0.0241 -0.0786 -0.2633
 4470W        W 8068   8.103   1.540   0.205  0.2488 -0.2386  0.4720
 4471W        W 8069   1.914   9.402   3.500  0.0926  0.0762  0.2072
 4472W        W 8070   0.029  11.365  12.482  0.0416  0.0686  0.0428
 4473W        W 8071   2.050   6.670   7.075  0.1473  0.1204 -0.1103
 4474W        W 8072   1.444   7.788   2.114 -0.3094 -0.1909  0.0389
 4475W        W 8073   3.586  13.623   8.330  0.2005 -0.0494 -0.0052
 4476W        W 8074   8.196   9.855  15.706  0.3998 -0.0205 -0.1886
 4477W        W 8075  12.766   6.007  13.664 -0.1622 -0.0955 -0.1168
 4478W        W 8076  14.199  14.194   6.821 -0.0238 -0.1891 -0.0016
 4479W        W 8077  10.449   2.842   8.119  0.3199 -0.1131 -0.1702
 4480W        W 8078   4.570   6.326   6.067  0.0540  0.1535 -0.0202
 4481W        W 8079  13.584   9.813  12.569  0.2424  0.2362  0.0928
 4482W        W 8080  11.856   4.700   5.035  0.1448 -0.1776  0.1637
 4483W        W 8081  10.642   7.903   7.642  0.1865 -0.0126  0.0990
 4484W        W 8082  14.429  15.901   7.433 -0.1443 -0.1238  0.0628
 4485W        W 8083   9.918  15.704   8.107  0.3563  0.2238 -0.0897
 4486W        W 8084  16.021  12.440   8.665 -0.1379  0.0936  0.1206
 4487W        W 8085   0.259  13.836   9.950  0.3271 -0.0109 -0.0899
 4488W        W 8086  11.278  14.646   7.453 -0.4228  0.1428 -0.0113
 4489W        W 8087   8.815   0.710   9.785 -0.1688 -0.0573 -0.4085
 4490W        W 8088   9.908   3.919  16.263 -0.2317  0.1378  0.1233
 4491W        W 8089   9.493   0.902  10.400 -0.0446 -0.3998  0.1680
 4492W        W 8090   3.623   0.700  13.283  0.0853  0.2906  0.0185
 4493W        W 8091   0.907  13.166  11.758  0.0317 -0.0440 -0.1701
 4494W        W 8092   4.165   6.496  12.573 -0.1974  0.3082 -0.2152
 4495W        W 8093   0.890   3.307  13.000  0.3529  0.1678 -0.0129
 4496W        W 8094   5.904   3.513   7.430 -0.2034  0.1164 -0.0337
 4497W        W 8095  11.242   9.907   7.761 -0.1083  0.0144 -0.0748
 4498W        W 8096  13.574  11.738   3.280 -0.0477  0.1425  0.4485
 4499W        W 8097   2.613   3.746  11.294  0.2463  0.1972  0.2047
 4500W        W 8098  11.727   7.582   4.280  0.2160 -0.0907 -0.0753
 4501W        W 8099  11.874   7.330   7.520  0.0385 -0.0403 -0.1967
 4502W        W 8100   2.298   0.617  10.708 -0.1310  0.0958  0.1506
 4503W        W 8101   3.764   3.209   9.865  0.5676 -0.2790  0.0622
 4504W        W 8102   6.454  11.847   6.679 -0.0491  0.0452 -0.0782
 4505W        W 8103   2.153   3.569   6.410  0.2431 -0.1238  0.4132
 4506W        W 8104   7.033   9.202   0.663 -0.1342  0.1813 -0.0932
 4507W        W 8105   8.889  11.184   4.949 -0.1366  0.0456 -0.0870
 4508W        W 8106   8.523   8.388  13.910 -0.4380 -0.1778  0.0200
 4509W        W 8107  14.543  15.946   2.934 -0.2298 -0.0706 -0.1283
 4510W        W 8108   8.660   0.365  15.782  0.1744  0.0074  0.1176
 4511W        W 8109  12.552   6.680  10.789  0.2539 -0.0926 -0.2021
 4512W        W 8110  14.109   2.069  10.139 -0.1021  0.1697 -0.1569
 4513W        W 8111   8.879   4.551   6.661  0.1264  0.1711  0.0335
 4514W        W 8112   2.623   3.689  13.339  0.1795 -0.1591 -0.0152
 4515W        W 8113   6.875   9.518  15.166 -0.1083 -0.2042  0.3532
 4516W        W 8114  16.151  10.986  11.145 -0.3737 -0.1444  0.0487
 4517W        W 8115   9.426  15.718   4.242 -0.1603 -0.2962  0.2440
 4518W        W 8116   3.643  14.395   7.701 -0.0885  0.0324  0.0188
 4519W        W 8117  11.326  15.560  13.254 -0.3267 -0.1654  0.0980
 4520W        W 8118   9.044   5.996  14.840  0.1835 -0.0269  0.0026
 4521W        W 8119   7.924   5.155  10.249 -0.0524  0.1419  0.1544
 4522W        W 8120   4.024   0.647   4.259  0.1962  0.0597  0.1686
 4523W        W 8121   7.977   9.936   4.171 -0.0419  0.2216 -0.2839
 4524W        W 8122   7.300  16.207   1.203 -0.0211  0.0298 -0.3525
 4525W        W 8123   4.552  14.806   4.104  0.0456  0.2860  0.5141
 4526W        W 8124  13.389  10.107  16.310 -0.1283 -0.1178  0.1652
 4527W        W 8125  11.523   0.308   7.747 -0.1338  0.0721  0.3482
 4528W        W 8126   2.911   4.547   4.051  0.1672  0.0035  0.1689
 4529W        W 8127  14.535   7.098   9.749 -0.0077 -0.2473 -0.1169
 4530W        W 8128   0.684  15.556   9.025 -0.1175 -0.0801  0.0529
 4531W        W 8129   0.033  12.162  16.235  0.0192  0.2543 -0.1745
 4532W        W 8130   2.805   0.212   5.398  0.1171 -0.1999 -0.2177
 4533W        W 8131   2.081   2.109  13.505  0.0602 -0.0171  0.0891
 4534W        W 8132  11.517   9.197   2.296 -0.0997 -0.0580 -0.0241
 4535W        W 8133   9.546  16.189  12.845 -0.0186 -0.1778  0.0318
 4536W        W 8134  14.947  15.860   1.608  0.0229 -0.1161  0.4391
 4537W        W 8135   7.511   7.709  12.603 -0.0324  0.0126  0.0103
 4538W        W 8136   3.125  12.549  14.955 -0.0845  0.1702 -0.1502
 4539W        W 8137  14.457  12.559   3.236  0.0806 -0.0220 -0.0885
 4540W        W 8138   4.657   2.474   3.571 -0.2174  0.1783 -0.0760
 4541W        W 8139   0.076  12.158   7.098 -0.0695 -0.0219 -0.1673
 4542W        W 8140   1.922   6.945   8.257 -0.0284  0.0818 -0.2718
 4543W        W 8141  14.107  11.402   1.582 -0.3727 -0.0231 -0.3031
 4544W        W 8142   3.149  14.835  15.346 -0.1124  0.1639 -0.1197
 4545W        W 8143   9.649   4.396  11.436 -0.0508  0.0242  0.2343
 4546W        W 8144   0.945   6.589  11.441 -0.0941  0.1445  0.1275
 4547W        W 8145   1.103   3.217   2.183  0.0509  0.0204  0.1059
 4548W        W 8146  14.448   8.291   6.343 -0.1034  0.1322 -0.0494
 4549W        W 8147   5.061  11.480   8.961 -0.1210 -0.1007  0.0388
 4550W        W 8148   9.879   5.043   3.039  0.2905 -0.0104 -0.2862
 4551W        W 8149   2.254   2.168   8.465 -0.0314 -0.0893 -0.5178
 4552W        W 8150   7.882   3.231  10.441  0.4104 -0.1047  0.1493
 4553W        W 8151  14.485   4.563  12.223 -0.1582 -0.2169 -0.1319
 4554W        W 8152   8.550  11.516  11.012  0.0646 -0.0205 -0.0386
 4555W        W 8153  15.920   5.672   4.191 -0.2322  0.0349  0.0726
 4556W        W 8154   4.366   7.154   8.476  0.0144 -0.0502 -0.0489
 4557W        W 8155   2.701   5.292  10.758  0.1539  0.0689 -0.1865
 4558W        W 8156  14.555   7.035  13.115 -0.3061 -0.3358  0.0607
 4559W        W 8157   9.905  10.068   5.803  0.1888 -0.1036  0.3112
 4560W        W 8158   6.201   4.428   8.635  0.0353  0.0862  0.1279
 4561W        W 8159   9.323   1.566   5.367  0.2096  0.1176  0.3038
 4562W        W 8160   1.041   9.551   3.336  0.1621 -0.0551 -0.0940
 4563W        W 8161   4.415   0.189  12.008 -0.1599 -0.4034 -0.1658
 4564W        W 8162   7.464   1.234  12.709 -0.0929  0.1032  0.3398
 4565W        W 8163   7.119   4.304  13.283  0.1791  0.2827 -0.0261
 4566W        W 8164  16.383   4.630   5.045  0.2558 -0.0064  0.1493
 4567W        W 8165   0.144  11.004   1.339 -0.1297 -0.1218  0.0211
 4568W        W 8166   3.550   7.805   7.004  0.0749  0.3122 -0.0386
 4569W        W 8167   4.353   3.158   3.099 -0.2260 -0.0977  0.0293
 4570W        W 8168  11.912   7.390  15.880  0.1747  0.1331 -0.1465
 4571W        W 8169   2.361  10.849  15.907  0.0729  0.1985 -0.1077
 4572W        W 8170   5.072   3.851   4.636 -0.2218 -0.2582  0.0780
 4573W        W 8171   8.182  10.890  10.527 -0.0852  0.2833 -0.3926
 4574W        W 8172   4.994   2.632  15.787 -0.1071  0.0630 -0.1780
 4575W        W 8173  10.870   9.659  15.452  0.1305 -0.2022 -0.0762
 4576W        W 8174   3.708  10.218   7.564 -0.0036 -0.1519  0.0854
 4577W        W 8175  12.948   6.449  15.650 -0.3404 -0.0203 -0.1159
 4578W        W 8176  10.381  16.264  11.938  0.1727 -0.2276 -0.0116
 4579W        W 8177  16.032  13.319   3.348 -0.0085  0.1688 -0.0818
 4580W        W 8178  15.329   2.306   4.050 -0.0151 -0.0342 -0.1935
 4581W        W 8179  10.260   3.342  13.809 -0.0601  0.0868 -0.3218
 4582W        W 8180   7.838   2.319   2.565  0.1572  0.1097  0.0241
 4583W        W 8181   2.681   3.557   6.204 -0.0306  0.4402  0.0973
 4584W        W 8182   4.772  12.440  12.778  0.1826 -0.0377 -0.1638
 4585W        W 8183   0.179   4.186  15.949 -0.1032 -0.2160  0.1513
 4586W        W 8184   2.871   2.055  10.824  0.0283  0.0435  0.0328
 4587W        W 8185  12.177  10.496   7.237 -0.0598  0.2040  0.2907
 4588W        W 8186   1.625   4.732   3.693 -0.1747 -0.4654 -0.1301
 4589W        W 8187   0.214   7.228  10.541  0.3114  0.2671 -0.1177
 4590W        W 8188   5.488   2.947   0.087 -0.1447 -0.0446  0.3960
 4591W        W 8189  11.268  11.368  11.694  0.3139  0.1025  0.3062
 4592W        W 8190   9.920   7.103   1.289  0.1822 -0.1092 -0.0520
 4593W        W 8191  11.051  13.431   9.035  0.1455 -0.0814  0.3847
 4594W        W 8192  13.452   5.649   3.508 -0.2908 -0.2524 -0.0439
 4595W        W 8193   7.023   7.500  10.527 -0.0440 -0.3958 -0.0718
 4596W        W 8194   5.996   1.559  10.673 -0.1284 -0.0646  0.2794
 4597W        W 8195   7.226  14.151   5.327 -0.0781  0.1090  0.2498
 4598W        W 8196   4.675   2.770   9.747  0.2387  0.1473 -0.2172
 4599W        W 8197   3.004   5.481   8.857 -0.2299  0.1271  0.3921
 4600W        W 8198  11.226   7.778   9.863 -0.2192 -0.2107 -0.0432
 4601W        W 8199   1.288   0.785   6.783  0.0230 -0.1614 -0.3429
 4602W        W 8200  16.279   2.574   8.255  0.1769  0.0751 -0.1216
 4603W        W 8201   5.988   1.565   0.505  0.0040  0.0142  0.0757
 4604W        W 8202   8.010   4.019   1.979 -0.2566 -0.3030 -0.1633
 4605W        W 8203   4.794   7.280   7.137 -0.1193 -0.2155  0.1382
 4606W        W 8204   0.794  12.872  13.058 -0.0257 -0.0181 -0.1863
 4607W        W 8205   1.831   3.971   5.728 -0.1208  0.1061  0.0995
 4608W        W 8206  13.420   1.723   9.009  0.1419  0.1321  0.1880
 4609W        W 8207   2.688  12.123  12.245 -0.2660 -0.0266  0.1820
 4610W        W 8208   2.060   5.970  10.671  0.1339  0.1084 -0.0615
 4611W        W 8209   6.653  11.474   2.150  0.2296 -0.0437 -0.0852
 4612W        W 8210   5.128   8.271   1.609 -0.2306 -0.4971 -0.3086
 4613W        W 8211   9.640   5.724   2.407  0.4020  0.0947 -0.1196
 4614W        W 8212  10.249  12.619   1.239 -0.4841 -0.1764 -0.4509
 4615W        W 8213   7.364   2.298  15.249 -0.1245  0.1402  0.0758
 4616W        W 8214   6.602   5.366   5.594 -0.1903  0.1731 -0.0918
 4617W        W 8215   5.445   7.019  12.307 -0.0818 -0.0827  0.0706
 4618W        W 8216   5.816   3.943   0.906  0.2109  0.0742  0.0898
 4619W        W 8217   9.516   1.903   3.051  0.3221  0.0675 -0.3453
 4620W        W 8218   0.360   4.720   8.991  0.2461  0.1773 -0.3337
 4621W        W 8219  13.243   8.957  12.620 -0.2864 -0.1416 -0.0440
 4622W        W 8220  15.719   3.279  12.307 -0.1937 -0.1513  0.0087
 4623W        W 8221  12.081  10.784  16.011  0.0974  0.2053  0.0960
 4624W        W 8222   3.859  11.428   5.149  0.0784 -0.0513 -0.0469
 4625W        W 8223  15.445   5.200  15.696  0.2064 -0.3117 -0.2068
 4626W        W 8224   4.809  10.365  11.077  0.1449 -0.2037  0.0192
 4627W        W 8225  15.860   1.006   2.355  0.1039  0.1664 -0.1467
 4628W        W 8226   4.381   7.588   8.734  0.0465  0.0081  0.2931
 4629W        W 8227   8.872   3.440   4.513 -0.0152 -0.1469 -0.0770
 4630W        W 8228  12.227   8.483  12.269 -0.2426  0.0538  0.3921
 4631W        W 8229  13.127  11.821   6.622 -0.0332  0.3317  0.0058
 4632W        W 8230  13.986  15.521  14.896  0.1651  0.1500 -0.1866
 4633W        W 8231   4.683   7.489   2.043  0.0580 -0.1705  0.2963
 4634W        W 8232  10.489   4.289   6.960  0.2416 -0.2278 -0.1738
 4635W        W 8233   5.682  12.309  10.517 -0.1139 -0.2466  0.1005
 4636W        W 8234  14.486  11.122   9.206  0.2113 -0.2107  0.1638
 4637W        W 8235   7.390  13.087   4.436 -0.1195 -0.0111 -0.2279
 4638W        W 8236   2.730  10.100  10.690  0.0736 -0.1845 -0.0105
 4639W        W 8237   9.237   7.546  12.798  0.0412 -0.3487  0.2489
 4640W        W 8238   7.183   0.949  12.471  0.0895  0.1238 -0.0353
 4641W        W 8239   7.223   5.990  14.181 -0.0148 -0.0613  0.1124
 4642W        W 8240  16.190   1.847   2.872 -0.0730  0.0457 -0.0265
 4643W        W 8241  11.857  11.529   8.775  0.1257 -0.1879 -0.0159
 4644W        W 8242   5.405  13.070  12.371 -0.2055 -0.0881 -0.2847
 4645W        W 8243   2.491   7.686  15.376 -0.2760  0.2276  0.0982
 4646W        W 8244   7.987   2.506   0.312  0.2393 -0.2991  0.1328
 4647W        W 8245  15.213   9.601   1.515  0.1206  0.0432  0.0273
 4648W        W 8246  10.463   4.627   8.576 -0.2267  0.0157 -0.1955
 4649W        W 8247  11.170   9.405  15.131  0.1410  0.3065 -0.4807
 4650W        W 8248  14.083   7.038  10.772 -0.0652 -0.2903  0.1459
 4651W        W 8249  15.649   6.734  15.976  0.2561 -0.1098  0.1077
 4652W        W 8250   1.495   1.822   0.541 -0.1991 -0.0960  0.4124
 4653W        W 8251  16.250   4.429   7.629  0.1145  0.2946 -0.0798
 4654W        W 8252   8.522   6.423   1.759  0.2404  0.0778 -0.2945
 4655W        W 8253   5.580   3.357  11.489 -0.2718 -0.3781  0.2094
 4656W        W 8254   1.500   5.292  15.336 -0.1941 -0.4474 -0.0109
 4657W        W 8255   9.479   8.130   7.756  0.0107 -0.2440 -0.4758
 4658W        W 8256   6.679  14.280  15.966  0.0501 -0.0273  0.1168
 4659W        W 8257  10.364  14.589  14.092 -0.2238 -0.1367 -0.0711
 4660W        W 8258   9.311   0.201   8.398  0.2771  0.1015 -0.0722
 4661W        W 8259  12.499   6.032   5.111 -0.3275 -0.0072  0.3183
 4662W        W 8260   2.125  10.882   3.925  0.4085  0.0216  0.0008
 4663W        W 8261  14.792  16.047  15.931 -0.3807 -0.3493  0.2716
 4664W        W 8262  11.137   7.688   6.918 -0.2787  0.0722 -0.0726
 4665W        W 8263   3.467  11.980  11.280 -0.1694  0.0620  0.0201
 4666W        W 8264   8.580   8.245   4.890  0.0498  0.1811  0.3876
 4667W        W 8265   2.455  14.396   5.302 -0.0501  0.2099  0.4789
 4668W        W 8266   1.267   2.508   2.883  0.0496  0.2209 -0.1505
 4669W        W 8267   4.283   7.974  16.033  0.0062  0.0585  0.1225
 4670W        W 8268  14.930   3.550  15.426  0.0667 -0.0859  0.2121
 4671W        W 8269   8.345   2.191  15.142  0.0453 -0.3320 -0.0424
 4672W        W 8270   9.415   3.027   7.226 -0.0397 -0.3014  0.1761
 4673W        W 8271  15.197  16.204   6.498 -0.4394  0.2106 -0.0051
 4674W        W 8272   4.140   9.218  11.594  0.0452 -0.3008  0.1971
 4675W        W 8273  13.629   6.386  15.675 -0.0194  0.1152  0.1603
 4676W        W 8274   1.315   3.985   5.478 -0.1765 -0.1030 -0.1887
 4677W        W 8275   2.866  15.611   0.394 -0.0501 -0.3525 -0.4025
 4678W        W 8276  10.830   9.104  15.311 -0.1217 -0.0590  0.3236
 4679W        W 8277   8.575   3.150  12.681 -0.0333  0.0987 -0.0773
 4680W        W 8278   3.694   4.547   9.232 -0.1923  0.3314  0.0415
 4681W        W 8279  11.401   9.866   4.411  0.0228  0.1505 -0.1269
 4682W        W 8280  11.852  11.707   0.156 -0.0325 -0.0302 -0.1407
 4683W        W 8281  15.424  15.105   4.824 -0.2527  0.0260  0.0669
 4684W        W 8282  16.388  12.125   3.935  0.1953  0.2601  0.0287
 4685W        W 8283   4.788  10.563  13.336 -0.0709  0.0292  0.2685
 4686W        W 8284   2.443   9.760   5.649  0.0617 -0.0422 -0.1040
 4687W        W 8285   2.463   4.302   3.889  0.3848  0.1803  0.3390
 4688W        W 8286   0.495  14.446   1.074 -0.2310 -0.2560  0.0990
 4689W        W 8287  12.200   6.523   0.220 -0.0823 -0.0113  0.4869
 4690W        W 8288   9.463   2.436   1.389 -0.0289 -0.0143 -0.0701
 4691W        W 8289  12.627   1.321   3.523  0.0036  0.1110 -0.2097
 4692W        W 8290   8.213  11.326  13.468  0.4213 -0.0754  0.0538
 4693W        W 8291  15.945  14.134  10.369 -0.1757 -0.1966  0.1230
 4694W        W 8292   9.360   9.108  15.275 -0.3159 -0.1187  0.1926
 4695W        W 8293   4.173  11.637   7.426  0.2273  0.3439  0.1190
 4696W        W 8294  12.413   8.983  10.373 -0.0798 -0.2121  0.0304
 4697W        W 8295   8.181  10.915  12.045  0.0478 -0.1147 -0.0882
 4698W        W 8296  12.563  14.485   6.397 -0.2126 -0.2981  0.0813
 4699W        W 8297   3.826  14.993   4.591 -0.2164  0.0980  0.1606
 4700W        W 8298   1.999   0.791  15.035 -0.2151 -0.1020  0.0635
 4701W        W 8299  12.136   2.613   3.843  0.0674 -0.2649  0.3156
 4702W        W 8300   4.735  15.463   5.860 -0.2544  0.3738  0.2178
 4703W        W 8301  15.598  12.541   8.923 -0.2084 -0.0460 -0.1584
 4704W        W 8302   5.717   6.686   1.140 -0.2492  0.0443  0.1653
 4705W        W 8303   5.793  11.427   7.288  0.0365  0.1200  0.0755
 4706W        W 8304  11.323   8.812  13.205 -0.1189 -0.0284 -0.0272
 4707W        W 8305   1.383   9.270   2.302 -0.2367  0.0516  0.1496
 4708W        W 8306   0.420   3.851   5.992 -0.2443 -0.0988 -0.0767
 4709W        W 8307   2.909  11.200   2.788  0.1944 -0.1101 -0.1209
 4710W        W 8308  13.078   7.779   7.544  0.0818 -0.2495 -0.1557
 4711W        W 8309   7.534  11.985  11.959  0.1016 -0.2147  0.0018
 4712W        W 8310  14.742  12.222   0.234  0.4205 -0.0902  0.0596
 4713W        W 8311   6.993  10.611   4.145 -0.1143 -0.0041  0.1466
 4714W        W 8312   9.261   5.993   8.603  0.1371  0.0786 -0.1682
 4715W        W 8313  12.490   3.739  13.051  0.2021 -0.0422 -0.3837
 4716W        W 8314  16.254  16.154  11.333 -0.4739 -0.1862  0.2485
 4717W        W 8315   4.499  15.117   6.420 -0.2545 -0.1021  0.1017
 4718W        W 8316  15.561  12.189  11.736  0.0817  0.1022  0.1452
 4719W        W 8317  16.221   9.508  10.181 -0.2157 -0.1519 -0.0305
 4720W        W 8318  15.169  12.637  14.448  0.2285 -0.1019  0.1202
 4721W        W 8319   5.461   1.498  10.757  0.2548  0.1241 -0.1494
 4722W        W 8320   4.540   4.635   1.592  0.1019  0.1143  0.0150
 4723W        W 8321   3.117  12.333   3.753 -0.1592 -0.1273  0.1426
 4724W        W 8322   1.431   1.064   6.008 -0.0084 -0.2906 -0.2120
 4725W        W 8323   1.028  12.127   0.259 -0.1073  0.0717  0.0409
 4726W        W 8324   5.608  14.212   3.317 -0.1194 -0.0409  0.1254
 4727W        W 8325  13.847   2.231   6.500  0.2549 -0.0435  0.1373
 4728W        W 8326   7.808   7.586  15.821  0.3739 -0.0347 -0.2253
 4729W        W 8327  11.796   5.847  13.425 -0.0495 -0.2032  0.2499
 4730W        W 8328   2.408   2.339   7.307 -0.0327  0.0949  0.0435
 4731W        W 8329   9.012   3.486  13.947 -0.1398 -0.1410 -0.1614
 4732W        W 8330  16.058  12.038  11.839 -0.2364  0.0942  0.1129
 4733W        W 8331   5.205  14.741   3.887  0.0984  0.0552  0.4032
 4734W        W 8332  11.868   9.135  10.259 -0.0561 -0.0224 -0.2310
 4735W        W 8333   6.266   4.757   4.338 -0.0368  0.0925 -0.0720
 4736W        W 8334   8.548  13.284   1.408  0.3007 -0.0381 -0.0942
 4737W        W 8335   0.370   1.872   6.836  0.0427  0.0388 -0.2270
 4738W        W 8336  10.030   2.767  11.913 -0.2856 -0.3290 -0.0407
 4739W        W 8337  16.263  14.035  14.035 -0.3373  0.2509  0.3283
 4740W        W 8338   2.715  15.813   1.954 -0.1723 -0.1486  0.1235
 4741W        W 8339   5.100  15.629   8.642 -0.0492  0.1616  0.2339
 4742W        W 8340  12.059   3.882   5.550  0.0952  0.1521 -0.1679
 4743W        W 8341  11.378   3.919  15.597 -0.3352 -0.1262 -0.1157
 4744W        W 8342  10.149   9.915  12.805 -0.1839 -0.2771  0.0996
 4745W        W 8343   1.929   2.478  15.281 -0.3891  0.3521 -0.1177
 4746W        W 8344  13.367  10.752   9.947  0.2308 -0.0794  0.1177
 4747W        W 8345   2.367  15.818   2.794 -0.0146 -0.0735  0.1930
 4748W        W 8346   8.075  11.375  11.891  0.3260 -0.1973  0.2392
 4749W        W 8347   8.411  10.788  11.522 -0.0241  0.0789  0.1098
 4750W        W 8348   4.164  10.225   2.448 -0.1933 -0.3004 -0.1530
 4751W        W 8349   3.506   4.411  14.030  0.1182  0.2818 -0.2352
 4752W        W 8350   9.688   7.515   9.741  0.0049  0.1309  0.0251
 4753W        W 8351   9.375  15.914   6.797 -0.4090  0.1263 -0.3293
 4754W        W 8352   8.578   9.795   2.800  0.2738 -0.0147 -0.2289
 4755W        W 8353  12.309   2.072   3.752 -0.1550  0.0497  0.0631
 4756W        W 8354  13.206   4.303   8.166 -0.1158  0.3796  0.0287
 4757W        W 8355  11.965   4.074  14.861  0.2239 -0.0097  0.1232
 4758W        W 8356  15.573  10.787  14.370  0.0530  0.0547 -0.0119
 4759W        W 8357   1.961   7.103  12.972  0.0025  0.1763  0.3432
 4760W        W 8358   2.395   9.393  12.043  0.0840 -0.1693  0.2598
 4761W        W 8359   3.460  15.995  12.685  0.3007 -0.3817 -0.2660
 4762W        W 8360   2.649  11.044  15.153  0.0417  0.2185  0.4903
 4763W        W 8361   5.019   9.517  15.480  0.1076 -0.2697 -0.2064
 4764W        W 8362   5.367   0.451   2.065 -0.1563  0.0764 -0.2762
 4765W        W 8363  13.753  12.724  10.184  0.0438 -0.1283  0.2058
 4766W        W 8364   5.826   9.918  15.478 -0.0223 -0.1824  0.1165
 4767W        W 8365   9.906   4.901   7.805  0.1805 -0.3084  0.2253
 4768W        W 8366   8.714  10.465   3.744 -0.3778  0.1823 -0.1689
 4769W        W 8367   2.255   0.505  10.098 -0.1270 -0.1102 -0.0535
 4770W        W 8368   2.461   3.065   2.832  0.0469 -0.1550  0.2537
 4771W        W 8369   5.665  11.801   5.991 -0.1952 -0.3783 -0.2161
 4772W        W 8370   8.261   0.443   4.079 -0.1123 -0.0249 -0.1688
 4773W        W 8371  16.202  14.228  12.068  0.2299 -0.1147  0.1702
 4774W        W 8372  13.064  11.885  13.402 -0.1055  0.3401  0.0028
 4775W        W 8373  11.005   8.776  15.748  0.1605 -0.2165  0.0719
 4776W        W 8374  14.546   7.398  15.676 -0.2515  0.1669 -0.0439
 4777W        W 8375   3.042   0.720   8.453 -0.2930 -0.0771  0.0519
 4778W        W 8376  12.895  13.823  14.930 -0.0356 -0.0039 -0.0472
 4779W        W 8377  11.046   9.597   1.255  0.0663  0.2326  0.1090
 4780W        W 8378  15.179  14.817   7.631 -0.2067 -0.0794  0.0193
 4781W        W 8379   2.778   6.651   8.757  0.0991  0.1044  0.1987
 4782W        W 8380  15.623  15.416  14.028  0.1255  0.3653 -0.1705
 4783W        W 8381  13.932   0.531  15.301 -0.1240  0.1073 -0.2583
 4784W        W 8382  11.902   5.182   9.089  0.1479 -0.1886 -0.0334
 4785W        W 8383   7.678   2.392   0.882 -0.1857 -0.2196  0.0832
 4786W        W 8384   7.256   8.353   0.923 -0.5917  0.2086 -0.1296
 4787W        W 8385  16.353  12.652   4.831  0.0946 -0.3838 -0.1506
 4788W        W 8386   1.050  11.864  14.526  0.0163  0.2502  0.0221
 4789W        W 8387  11.571   6.285   4.940 -0.0099  0.3510 -0.0520
 4790W        W 8388  14.165  13.650   1.240  0.0978  0.3734 -0.4941
 4791W        W 8389  12.596   3.585  12.303  0.0367  0.0336 -0.0945
 4792W        W 8390   4.175   2.751   9.866  0.2431 -0.1112 -0.1583
 4793W        W 8391   1.735   1.525   8.365  0.0348 -0.1093 -0.0262
 4794W        W 8392  15.007   6.278  13.470 -0.2284 -0.2212  0.1053
 4795W        W 8393   6.577   2.873  10.651  0.4048  0.1065  0.0923
 4796W        W 8394  10.616   7.797   1.090 -0.2473 -0.0457  0.0456
 4797W        W 8395   9.805  14.617   3.250  0.3196  0.1818 -0.3830
 4798W        W 8396   7.351  12.766   8.935 -0.6139 -0.1267  0.2970
 4799W        W 8397  12.357   0.630   7.258 -0.0971 -0.0509 -0.0529
 4800W        W 8398   6.682   5.220  11.892 -0.0086 -0.0600 -0.0837
 4801W        W 8399   8.959  15.970   7.059 -0.1935  0.1532  0.0042
 4802W        W 8400   6.691   5.159   6.468 -0.0900 -0.3402  0.0803
 4803W        W 8401  15.377   0.089   2.474  0.2594 -0.0509  0.2253
 4804W        W 8402  11.287  14.269  14.063 -0.2784  0.0195  0.1848
 4805W        W 8403  10.483   8.869   3.262  0.3941  0.2052 -0.0726
 4806W        W 8404   5.941  10.500   5.576 -0.0501 -0.2251 -0.0651
 4807W        W 8405   9.379   6.502   0.783 -0.1004 -0.2078  0.0894
 4808W        W 8406   2.123  13.783   1.773 -0.0697  0.0038 -0.1664
 4809W        W 8407  14.518   3.104  15.416 -0.0672  0.1247  0.0180
 4810W        W 8408   5.846   6.592   4.449 -0.0767 -0.0510 -0.2002
 4811W        W 8409   7.700  15.624  11.706  0.0748  0.1443 -0.1639
 4812W        W 8410   1.321   3.697   5.905 -0.3476  0.0408 -0.2726
 4813W        W 8411   7.576   7.681   4.146 -0.0730 -0.0539 -0.1247
 4814W        W 8412  11.450  11.616  10.696  0.3161 -0.0164 -0.0773
 4815W        W 8413   1.227  13.203   3.886 -0.1910 -0.2145 -0.3574
 4816W        W 8414  14.391   1.321  12.469  0.4425 -0.1027  0.0397
 4817W        W 8415  11.084   9.147   5.518  0.0697  0.0236  0.1616
 4818W        W 8416  13.484   9.566  16.293 -0.0393  0.1023 -0.0055
 4819W        W 8417   8.666  12.007   0.633 -0.5929  0.0421 -0.0984
 4820W        W 8418   0.479   9.505   9.877  0.1863  0.0005  0.0541
 4821W        W 8419   0.142  14.348  12.446  0.1873 -0.1306 -0.0064
 4822W        W 8420  13.612   7.611   1.283  0.1784  0.0421  0.0494
 4823W        W 8421   4.497   5.113   7.324 -0.0906 -0.0081 -0.1213
 4824W        W 8422  14.203  16.175   0.969  0.0555 -0.0041  0.0383
 4825W        W 8423   5.225   3.675  14.443  0.2990  0.1115 -0.6783
 4826W        W 8424   1.340   6.220  15.042  0.1650 -0.1512  0.0686
 4827W        W 8425  15.781   6.195  11.284  0.1870  0.1947 -0.3099
 4828W        W 8426   6.476   7.211  14.971  0.2783 -0.2470  0.1538
 4829W        W 8427   5.994  15.663   4.602 -0.2016 -0.0238  0.1017
 4830W        W 8428   2.538   4.277   2.284 -0.0899 -0.2264 -0.2180
 4831W        W 8429   1.595   1.180   6.968 -0.2220  0.2025  0.1017
 4832W        W 8430  15.402  11.399  10.699  0.0550  0.0997  0.2489
 4833W        W 8431   5.595  16.077   3.768 -0.0368 -0.2911 -0.1236
 4834W        W 8432  12.397   9.665   0.784  0.2317  0.0146 -0.3905
 4835W        W 8433  15.523  15.284   7.538  0.0434 -0.1703  0.2716
 4836W        W 8434   2.804   2.892  11.381  0.0871 -0.0483 -0.1272
 4837W        W 8435   6.333   9.317   2.645 -0.0266  0.2184 -0.2164
 4838W        W 8436  10.954   1.757  11.279 -0.4954 -0.2354  0.0165
 4839W        W 8437   2.721   2.301   1.677 -0.0993  0.0847  0.0728
 4840W        W 8438   5.048   9.586   1.469  0.0823 -0.1093 -0.0912
 4841W        W 8439   3.979  11.487  10.531 -0.1680 -0.3082  0.0171
 4842W        W 8440  12.600  15.702  10.301  0.3647 -0.4083  0.2858
 4843W        W 8441   6.156   6.333   0.288 -0.1221  0.0771 -0.2841
 4844W        W 8442   2.171  13.572  14.752 -0.1116 -0.2145  0.0336
 4845W        W 8443   8.140  15.601   7.842  0.1515 -0.0318  0.0703
 4846W        W 8444  11.352   9.891  10.420 -0.2098  0.2476  0.1379
 4847W        W 8445   8.898   9.988   3.807  0.2462  0.0655  0.1299
 4848W        W 8446  15.708   8.892   6.989  0.0802  0.1188 -0.2131
 4849W        W 8447   4.705   4.720   4.442 -0.0381  0.2745 -0.1196
 4850W        W 8448   8.856   2.694   5.668  0.0689  0.0624 -0.0073
 4851W        W 8449  15.416  12.394   4.513  0.0477  0.2344  0.1089
 4852W        W 8450   1.981   5.362   8.960  0.0710 -0.1805  0.0527
 4853W        W 8451   9.514   4.922   5.009  0.0232  0.1575 -0.1001
 4854W        W 8452   6.750  15.327   5.938 -0.4562 -0.0050 -0.0438
 4855W        W 8453   4.059   0.225  10.371  0.0593 -0.0553 -0.2730
 4856W        W 8454   2.150   6.563   5.390  0.2170 -0.1621 -0.1360
 4857W        W 8455   6.876   3.929   7.532  0.1890  0.1123  0.2551
 4858W        W 8456   3.037   5.324  14.031 -0.1322 -0.0049  0.0208
 4859W        W 8457   6.306  14.728  10.161 -0.1292  0.0440  0.2457
 4860W        W 8458  11.199   3.535   8.284  0.1102  0.0469  0.2507
 4861W        W 8459  12.476   9.962   8.866 -0.1046 -0.3080  0.3892
 4862W        W 8460   2.872   6.360   6.711  0.1663 -0.0449 -0.0061
 4863W        W 8461  16.298   3.963   9.358  0.2245 -0.2051  0.0515
 4864W        W 8462   6.125   2.974   1.443  0.1596  0.0829 -0.2807
 4865W        W 8463  10.447   7.497  15.488  0.4173  0.0561 -0.1028
 4866W        W 8464   0.049   3.525  10.663 -0.3291 -0.0493 -0.0666
 4867W        W 8465   4.372  10.092  11.499  0.1154 -0.0733  0.0374
 4868W        W 8466  11.980   7.624  15.044 -0.1968 -0.0177  0.1874
 4869W        W 8467   2.221  15.400  10.585 -0.0579  0.1414 -0.0467
 4870W        W 8468  10.221   3.150   5.521 -0.0125  0.0836 -0.1663
 4871W        W 8469  15.229  11.438  10.209 -0.1177 -0.1420  0.2250
 4872W        W 8470   0.914   0.367   4.993  0.2359 -0.1158 -0.0298
 4873W        W 8471   9.190   7.097  13.132  0.1171  0.3297 -0.1112
 4874W        W 8472   0.647   3.112   8.264 -0.1936  0.1205 -0.2879
 4875W        W 8473  13.221  14.342  15.952  0.2356 -0.2158  0.0457
 4876W        W 8474   8.326  11.826   1.369 -0.0546 -0.1785  0.1891
 4877W        W 8475  13.001   7.439   2.179 -0.1153  0.0506 -0.2212
 4878W        W 8476  11.053   0.303  12.954  0.2465 -0.2009 -0.0889
 4879W        W 8477   2.778  10.948   2.118  0.0452  0.2652 -0.0452
 4880W        W 8478  11.433  11.124   1.607  0.4699  0.1895  0.4615
 4881W        W 8479   0.313   1.643  14.741 -0.1364 -0.1678 -0.2226
 4882W        W 8480   6.090   7.121   6.748  0.2390  0.0018  0.0184
 4883W        W 8481  11.864   7.234   2.257 -0.1382 -0.1353  0.2379
 4884W        W 8482   6.600   7.463  12.668 -0.1941  0.0248 -0.2338
 4885W        W 8483  13.049   9.613  15.405 -0.0850  0.0263 -0.1618
 4886W        W 8484   8.837  15.810   8.118 -0.1260  0.0230  0.0863
 4887W        W 8485   0.814  11.612  10.229 -0.0908  0.0573  0.0254
 4888W        W 8486   9.997  14.248  15.137 -0.2710 -0.2089 -0.3965
 4889W        W 8487  14.389  12.606  14.518 -0.2575  0.0833 -0.2155
 4890W        W 8488  11.292   3.415  12.472  0.1619 -0.4142 -0.0032
 4891W        W 8489  10.783  15.731  13.397  0.1906 -0.0751  0.2605
 4892W        W 8490  14.161   5.286   8.666  0.3323  0.1562 -0.3774
 4893W        W 8491  10.200   5.400   9.958 -0.3218  0.0635  0.1398
 4894W        W 8492  12.133  11.931  11.059 -0.0309  0.2513 -0.0118
 4895W        W 8493   3.418  10.958  11.246 -0.0652  0.1625 -0.4883
 4896W        W 8494   9.082  12.834   5.142  0.1713 -0.1765 -0.0725
 4897W        W 8495   2.428  10.666  15.431 -0.1396  0.1364  0.0160
 4898W        W 8496   0.143   4.885   2.941  0.1818  0.0160  0.2654
 4899W        W 8497   8.908   6.700  10.336  0.0525 -0.1287 -0.0433
 4900W        W 8498  15.057  11.595   7.015 -0.0677  0.1149 -0.4593
 4901W        W 8499   9.162   5.590   4.487  0.2827  0.0539  0.0044
 4902W        W 8500  16.257   0.153   2.128  0.0144 -0.0398 -0.1813
 4903W        W 8501   1.977   5.243   0.074  0.2493 -0.1782  0.0668
 4904W        W 8502   3.216   4.630   1.389  0.0653 -0.2360 -0.0894
 4905W        W 8503   7.904   3.471   1.379 -0.0898  0.2979 -0.0670
 4906W        W 8504   4.536  16.042  10.424 -0.1994 -0.0454  0.0516
 4907W        W 8505   1.495   4.361   9.776 -0.2452  0.1799 -0.2311
 4908W        W 8506  11.106   2.275  15.838 -0.0922  0.1092 -0.0822
 4909W        W 8507  10.820  14.442   4.946  0.0847  0.6675 -0.0471
 4910W        W 8508  10.438   4.309  13.180 -0.3009  0.2918  0.0457
 4911W        W 8509   0.668   4.181   1.346 -0.1757  0.1752  0.1100
 4912W        W 8510   0.365   6.144   4.194 -0.0604 -0.2130  0.0959
 4913W        W 8511   7.863   1.399   3.908 -0.0561  0.1061 -0.4710
 4914W        W 8512   5.398   5.307   8.503  0.3290 -0.1705  0.0329
 4915W        W 8513   5.249  13.311   7.076 -0.0886  0.1664 -0.0569
 4916W        W 8514   3.730  12.709   0.541  0.0673 -0.3134  0.1809
 4917W        W 8515   4.196  14.223   4.273 -0.1504  0.2353 -0.0123
 4918W        W 8516   1.065  10.823   8.716 -0.4712 -0.0493 -0.0280
 4919W        W 8517  14.949  14.780   6.726  0.2495  0.0650  0.1113
 4920W        W 8518  13.881  13.626  10.051  0.0317  0.0089  0.0798
 4921W        W 8519   9.392  11.668  14.133 -0.1889  0.0689 -0.1694
 4922W        W 8520   0.400   0.449   5.167 -0.0150 -0.1838  0.1942
 4923W        W 8521   5.348   4.906   9.832 -0.0977 -0.0664  0.1561
 4924W        W 8522  12.224  13.717  15.193  0.2257  0.2535  0.0662
 4925W        W 8523   5.466   5.821  11.972 -0.1322 -0.1667  0.1215
 4926W        W 8524  16.181   7.465   6.276 -0.0912  0.0527  0.0676
 4927W        W 8525   7.682  13.353  11.620  0.0934 -0.1622  0.1179
 4928W        W 8526   9.788  13.183   6.875 -0.0244  0.4245  0.0690
 4929W        W 8527  10.911  10.758   4.582 -0.0307  0.2034  0.0202
 4930W        W 8528   0.610  13.216   2.431 -0.2170  0.1941  0.1549
 4931W        W 8529  15.776   2.459   8.418 -0.0700  0.1961  0.1481
 4932W        W 8530  10.407   1.472  14.791 -0.2470 -0.0932 -0.2498
 4933W        W 8531   1.615   3.455   1.016  0.0893  0.0258  0.0699
 4934W        W 8532   4.002   9.617  11.276 -0.1599 -0.0882  0.0649
 4935W        W 8533   9.487  12.298   0.912  0.2217 -0.0390  0.1259
 4936W        W 8534   6.468   5.560  14.725  0.0438  0.0664  0.0754
 4937W        W 8535  14.676  15.070  10.623  0.1065 -0.0384  0.2952
 4938W        W 8536  13.373   4.632   4.213 -0.0900  0.1665  0.1712
 4939W        W 8537  10.470   7.986   2.102  0.1748 -0.1363  0.0745
 4940W        W 8538  10.081   3.443   2.200 -0.2381 -0.2526 -0.0702
 4941W        W 8539  12.613  14.304   1.552 -0.1380 -0.0368  0.0955
 4942W        W 8540   6.792   8.939   7.289 -0.3698  0.0610  0.1349
 4943W        W 8541  11.480  10.063   5.333  0.1378  0.0703 -0.2376
 4944W        W 8542  13.541  15.564  10.327  0.0347  0.1337  0.0528
 4945W        W 8543  14.964   4.770  10.978 -0.1251  0.1866  0.0018
 4946W        W 8544   3.599   4.562   0.004 -0.0651  0.1821 -0.0758
 4947W        W 8545   8.572   8.945   0.322 -0.2337 -0.0822 -0.1766
 4948W        W 8546  14.431   8.376   4.968  0.1390 -0.0857 -0.0502
 4949W        W 8547   4.845   5.744  12.281 -0.1574  0.0216 -0.5693
 4950W        W 8548   7.707   5.010  11.144 -0.2937 -0.1499 -0.0954
 4951W        W 8549  15.116  11.351  11.667  0.3394  0.2539 -0.0722
 4952W        W 8550   4.997  15.926  11.960  0.2030  0.2824 -0.0422
 4953W        W 8551   7.044  11.223   9.868  0.2084  0.1517  0.0334
 4954W        W 8552   4.931   0.015   3.265 -0.1984 -0.2671 -0.2958
 4955W        W 8553  14.157   5.806   3.892  0.0249  0.2386  0.3839
 4956W        W 8554   0.103   8.996  10.780 -0.1548  0.1129 -0.1673
 4957W        W 8555  10.953  10.888   5.926  0.2700 -0.0101 -0.0011
 4958W        W 8556   9.716  14.304   5.770  0.0778  0.1019 -0.1110
 4959W        W 8557  10.245  12.723   0.410 -0.1937 -0.1424 -0.1502
 4960W        W 8558  13.987   6.566  11.979 -0.1163 -0.2230  0.2022
 4961W        W 8559   6.330  15.496   2.665  0.2842 -0.1746  0.0139
 4962W        W 8560  14.303   0.211   6.749 -0.0602  0.2454 -0.0890
 4963W        W 8561  14.960  15.400  12.835  0.0364 -0.0876  0.0584
 4964W        W 8562   6.653  10.879   5.856 -0.0932 -0.1960 -0.0846
 4965W        W 8563   5.416  12.731  13.612 -0.1017 -0.1656  0.2005
 4966W        W 8564   2.274   4.130   9.006 -0.0595  0.4753 -0.2224
 4967W        W 8565   2.631   2.866   7.020  0.3192  0.4580  0.1002
 4968W        W 8566  15.103   0.976  12.051 -0.1268  0.0115  0.0158
 4969W        W 8567   6.932  15.801   2.553 -0.2461  0.1932 -0.0474
 4970W        W 8568   5.792   4.066  12.770 -0.3337 -0.0840 -0.0505
 4971W        W 8569   4.503   1.550   0.035 -0.0131  0.1463 -0.1343
 4972W        W 8570  16.173   8.051   7.823  0.0349 -0.0445 -0.3619
 4973W        W 8571   5.550   8.887  11.759 -0.1637 -0.2225 -0.1486
 4974W        W 8572   1.941   6.952  14.353  0.1705 -0.0598 -0.1193
 4975W        W 8573  10.221   7.408   9.128 -0.1095  0.1849  0.2068
 4976W        W 8574  12.216   4.615   5.818  0.3255  0.1015  0.0687
 4977W        W 8575  12.397   9.892  15.881  0.1510 -0.1084  0.0499
 4978W        W 8576  10.954  10.783  10.496  0.0916  0.0730  0.3493
 4979W        W 8577   7.997  12.853   9.134  0.1523 -0.3135 -0.3709
 4980W        W 8578   5.557   2.420  13.679  0.1382  0.1848  0.0350
 4981W        W 8579  14.245   3.776  13.363 -0.0027  0.0533  0.1288
 4982W        W 8580   2.329  13.179   5.506 -0.1793 -0.1199 -0.0812
 4983W        W 8581  13.048   0.854   0.007 -0.0177  0.0205 -0.0933
 4984W        W 8582   5.479  16.318  10.264  0.1973 -0.3623  0.1919
 4985W        W 8583  15.373   6.931  10.895 -0.0256 -0.0308 -0.1136
 4986W        W 8584   3.433  10.799   7.895 -0.0826  0.1576 -0.2327
 4987W        W 8585  12.204   3.259  12.152  0.2910  0.0488  0.2423
 4988W        W 8586   1.175  12.994   5.756 -0.1482 -0.1507  0.2316
 4989W        W 8587   6.254  14.809  12.695  0.0166 -0.2159 -0.1325
 4990W        W 8588  15.914   7.339   8.326 -0.1880 -0.0386  0.1279
 4991W        W 8589   4.454   8.133  11.780  0.6540 -0.0666 -0.0464
 4992W        W 8590  14.888   1.049   3.745  0.4979  0.1240  0.0527
 4993W        W 8591  15.928   6.744   8.281 -0.0221 -0.2291 -0.0300
 4994W        W 8592  12.625   7.611   6.283 -0.0450  0.0866  0.2237
 4995W        W 8593  15.849  11.911  11.402  0.1237 -0.0564  0.1491
 4996W        W 8594  15.421   1.262   4.320 -0.2220  0.0275 -0.1793
 4997W        W 8595  11.821  11.053   8.904  0.1071 -0.1757  0.1466
 4998W        W 8596   0.162   9.667   6.500 -0.1509 -0.0175  0.0874
 4999W        W 8597  15.025   6.006   8.237  0.0731 -0.0381 -0.0230
 5000W        W 8598   4.711  11.609   0.508 -0.2593 -0.2864  0.1096
 5001W        W 8599  13.627   2.577  10.660 -0.3143 -0.3096 -0.2031
 5002W        W 8600  12.413   3.505   7.400 -0.1488  0.1198  0.1170
 5003W        W 8601  11.053   4.313   0.562  0.1317  0.0563 -0.3813
 5004W        W 8602   4.349   5.286   9.191  0.1343 -0.2532 -0.0731
 5005W        W 8603   4.519  13.665  10.426 -0.0876  0.0337  0.2693
 5006W        W 8604   3.392  11.085  12.709  0.0818  0.0729  0.1617
 5007W        W 8605   4.112  10.360  12.874 -0.0236  0.0974  0.1005
 5008W        W 8606   3.620   9.165   5.402 -0.2773 -0.0720  0.2059
 5009W        W 8607   9.908  11.807   6.623 -0.3215 -0.0999  0.0983
 5010W        W 8608   0.500  11.723   4.022  0.1780 -0.0139  0.3262
 5011W        W 8609   0.057  10.304   7.420  0.1328 -0.3540 -0.2774
 5012W        W 8610   3.415   5.367   1.942  0.0970  0.1884  0.1860
 5013W        W 8611   6.798   5.743  14.383 -0.1039  0.0936 -0.0186
 5014W        W 8612  14.362   6.135   4.802  0.0630  0.0276 -0.4809
 5015W        W 8613   5.862   7.828   6.149  0.0463  0.0842  0.2891
 5016W        W 8614  14.014   5.509  12.044 -0.0769  0.0174 -0.0172
 5017W        W 8615  11.173   6.815   6.432  0.3255  0.1003 -0.0741
 5018W        W 8616   3.698  14.003  15.080  0.1095 -0.0548  0.0140
 5019W        W 8617   3.233   2.937   6.835 -0.2199  0.2273  0.1640
 5020W        W 8618  12.435   6.952  15.373  0.4303  0.0870  0.0287
 5021W        W 8619   4.537   8.275  12.644 -0.2750  0.0187 -0.1874
 5022W        W 8620  15.058  14.014   2.509  0.2169 -0.1859 -0.4255
 5023W        W 8621  15.558   6.566   0.030  0.0069  0.1019  0.1964
 5024W        W 8622   3.637   3.035  11.778  0.0880 -0.1075 -0.0608
 5025W        W 8623   2.367  15.457   5.745  0.0453 -0.0611  0.1855
 5026W        W 8624   5.080   0.721  10.989 -0.2360  0.0384  0.2744
 5027W        W 8625  11.005   9.380   5.088  0.2951 -0.0594  0.2735
 5028W        W 8626   9.556   6.650   6.062  0.1055  0.2117 -0.1104
 5029W        W 8627   3.194   3.545  13.617 -0.3404 -0.2519 -0.1777
 5030W        W 8628   8.011  14.803   6.182 -0.6789 -0.0942  0.0628
 5031W        W 8629   6.471   8.138  15.542  0.2449  0.1621 -0.0426
 5032W        W 8630  14.467  11.650  13.333 -0.1349 -0.3468 -0.1738
 5033W        W 8631  13.052   1.144  11.777  0.0194 -0.0816 -0.0047
 5034W        W 8632   5.482   2.129  11.485  0.1917 -0.0488  0.1470
 5035W        W 8633   3.112   1.207  16.160  0.0909  0.1743  0.1179
 5036W        W 8634   1.151  14.329   5.949 -0.0003  0.0582 -0.1410
 5037W        W 8635   2.244   5.773  15.091 -0.2710 -0.1141  0.1927
 5038W        W 8636   6.945  15.754  14.536 -0.1776  0.2098 -0.0630
 5039W        W 8637   9.781  13.268   2.129  0.0248 -0.0097  0.3195
 5040W        W 8638   1.958   3.836  14.676 -0.1159 -0.1011 -0.1895
 5041W        W 8639  10.146   3.556  11.465  0.0869  0.2856  0.0078
 5042W        W 8640  12.017   0.065  16.300 -0.0545  0.0185  0.0594
 5043W        W 8641  11.069  10.871  13.959 -0.2159  0.1649  0.0222
 5044W        W 8642   8.166   0.006  10.750  0.0389  0.0088  0.0319
 5045W        W 8643   9.498   9.063   0.994  0.2333 -0.2656 -0.0111
 5046W        W 8644  11.589   4.234  15.163  0.0350 -0.1950  0.2147
 5047W        W 8645   1.942   3.743   2.414 -0.1996  0.1374 -0.1646
 5048W        W 8646   4.479  14.841   5.071  0.1236 -0.0151  0.0555
 5049W        W 8647  14.688  11.697   1.158 -0.0025 -0.0176  0.0372
 5050W        W 8648   3.528  11.182   0.621  0.2144  0.2956  0.1305
 5051W        W 8649   6.978   8.165  15.555  0.0333  0.0759 -0.1491
 5052W        W 8650   4.299  10.774   5.989  0.0448  0.1906 -0.1698
 5053W        W 8651  10.011  12.711   4.603 -0.0884 -0.0132 -0.0894
 5054W        W 8652  15.762  11.143   0.321  0.2735  0.0230  0.0386
 5055W        W 8653   5.890  11.294  11.278 -0.4165 -0.0777 -0.1656
 5056W        W 8654  10.089   3.721   7.526  0.3566  0.0798 -0.1473
 5057W        W 8655   0.976  12.064  12.548  0.0821  0.0949 -0.0990
 5058W        W 8656  14.627   5.434  15.964 -0.0955 -0.1038 -0.1693
 5059W        W 8657  14.041   9.985  11.013 -0.1047  0.1597  0.0844
 5060W        W 8658   4.719   1.835   9.285  0.2237  0.0767 -0.1697
 5061W        W 8659  14.356  12.148  14.717  0.3808 -0.1440  0.0316
 5062W        W 8660   4.990  13.548   2.219  0.1492  0.0924 -0.0376
 5063W        W 8661  10.522  12.896   3.766 -0.2039  0.2065  0.1189
 5064W        W 8662   1.399  13.167   4.894  0.2590  0.1426  0.3455
 5065W        W 8663  15.215  12.665   8.460  0.1856  0.0129  0.0785
 5066W        W 8664   6.961   5.677   8.245 -0.1013 -0.2197 -0.0062
 5067W        W 8665   5.094  12.602   3.654 -0.0350 -0.0967  0.0762
 5068W        W 8666   2.603  15.526   3.669  0.1631 -0.0959  0.4643
 5069W        W 8667   9.032  10.415   0.315  0.0035  0.1508 -0.3945
 5070W        W 8668  16.198   2.633   6.947  0.1778 -0.2220  0.1475
 5071W        W 8669  12.842   6.231   8.490 -0.0286  0.0783  0.0761
 5072W        W 8670   1.312   2.164  11.470  0.0784 -0.0312  0.1851
 5073W        W 8671  15.688  11.672   5.221 -0.1124  0.0496  0.0664
 5074W        W 8672   6.671  14.773  13.567  0.2857 -0.1162 -0.3041
 5075W        W 8673   8.399  11.028   5.049 -0.1239  0.0208 -0.1960
 5076W        W 8674   9.760   5.554   3.398  0.1803  0.0108 -0.0988
 5077W        W 8675   7.533   1.275   4.620  0.2341  0.0191  0.1040
 5078W        W 8676   5.074   9.833   0.867 -0.2727  0.0008  0.3979
 5079W        W 8677   9.837   5.658   6.162  0.1592 -0.0192  0.1548
 5080W        W 8678  10.153   8.800  10.263  0.4000  0.0920  0.0173
 5081W        W 8679   2.496   1.996  13.750 -0.3947  0.1026 -0.2353
 5082W        W 8680   7.456   2.881   2.131  0.3032 -0.4256  0.1698
 5083W        W 8681   6.629  13.848   3.036  0.1424  0.0295 -0.0107
 5084W        W 8682  10.542  14.768  10.222  0.0639  0.0731  0.2305
 5085W        W 8683   6.018   7.814  11.408 -0.1982 -0.1083 -0.1440
 5086W        W 8684   3.375  12.900  11.528  0.1110 -0.1261 -0.1414
 5087W        W 8685   0.494   7.886   7.148 -0.4517  0.3469  0.0558
 5088W        W 8686   1.746   7.985   4.745  0.2103  0.1100  0.0375
 5089W        W 8687   9.871   5.773   4.742  0.1149  0.1240  0.0001
 5090W        W 8688   8.178  10.713  11.002 -0.1059  0.3557 -0.1110
 5091W        W 8689   7.252   3.876   0.288  0.0156 -0.1864 -0.0178
 5092W        W 8690   6.166   9.131   5.498 -0.0972 -0.2478 -0.0208
 5093W        W 8691   0.496   4.611   1.628  0.2158 -0.2042 -0.1358
 5094W        W 8692   7.655   1.356   1.100  0.1650 -0.1254 -0.0908
 5095W        W 8693   3.443  14.462  13.870  0.0022 -0.5294  0.2204
 5096W        W 8694   4.638   3.381   8.049  0.2940 -0.2005  0.2073
 5097W        W 8695   5.728   7.653   4.218 -0.1109  0.1136  0.2053
 5098W        W 8696   2.735  14.084   4.630 -0.3580 -0.1723 -0.1708
 5099W        W 8697   5.324   9.130   5.705  0.0604  0.0170  0.2136
 5100W        W 8698   7.607   9.369   5.370  0.0345 -0.0050 -0.0595
 5101W        W 8699   2.039   3.721   7.160 -0.1414 -0.3359 -0.0039
 5102W        W 8700   4.882   9.856   6.513  0.5002  0.0840  0.2579
 5103W        W 8701  13.951   4.118   3.102 -0.1173 -0.0932 -0.2181
 5104W        W 8702   4.818   2.899   4.221 -0.2065 -0.1549 -0.1551
 5105W        W 8703   9.589   9.745  12.373 -0.4109 -0.3055 -0.0887
 5106W        W 8704   5.212  15.576   5.889 -0.0047  0.2835  0.0693
 5107W        W 8705   0.254  12.407   2.684 -0.0111  0.0643  0.0816
 5108W        W 8706   9.134  15.372  14.331  0.1454  0.3137 -0.2624
 5109W        W 8707   2.281   7.229   9.129 -0.3539  0.0000  0.1272
 5110W        W 8708   3.229   7.848   7.506 -0.1182 -0.0596 -0.2547
 5111W        W 8709   7.765  14.694  15.008 -0.0194  0.0374 -0.1175
 5112W        W 8710   3.896   2.034   3.967  0.1844 -0.2037 -0.1769
 5113W        W 8711  15.916   4.179   6.773  0.2079  0.0223 -0.4015
 5114W        W 8712  11.272   4.110   5.414 -0.0950  0.0740  0.0825
 5115W        W 8713   7.209   5.227   3.637  0.0973  0.3243  0.1097
 5116W        W 8714   6.394  12.174   3.353 -0.2171  0.1913  0.1176
 5117W        W 8715  10.262   6.787  16.316 -0.1805 -0.3078  0.0801
 5118W        W 8716   4.953   0.977   0.785  0.0856 -0.0071 -0.0948
 5119W        W 8717   9.557   8.283  16.081  0.0314  0.0432 -0.2285
 5120W        W 8718   7.402   9.460   3.730  0.1086 -0.0702 -0.1125
 5121W        W 8719   9.296   6.718   3.446 -0.0673  0.1380  0.0031
 5122W        W 8720   0.370  11.955   5.457  0.1788 -0.1703  0.0916
 5123W        W 8721   9.893  13.433  15.029  0.1374  0.1681 -0.1378
 5124W        W 8722   1.475   5.377  11.070 -0.1198  0.1919 -0.0322
 5125W        W 8723  12.344   8.774  15.528  0.1895 -0.2738  0.2078
 5126W        W 8724  10.542  13.766  10.362 -0.2239  0.0406 -0.0035
 5127W        W 8725  14.487  14.609   6.856 -0.0555  0.0459  0.0740
 5128W        W 8726  11.599   4.592   4.628  0.0137 -0.3106 -0.1163
 5129W        W 8727   8.093  14.281   7.708  0.2368  0.0378  0.2184
 5130W        W 8728   0.326   6.124  13.040 -0.0416 -0.0378  0.0376
 5131W        W 8729   9.052   5.249  11.578 -0.0626 -0.1781 -0.1068
 5132W        W 8730   6.497   9.043   4.672 -0.1197  0.1419 -0.0897
 5133W        W 8731   7.743   0.833  13.519 -0.1203 -0.0820 -0.0238
 5134W        W 8732  15.853  10.913   1.983 -0.0112 -0.2974  0.0406
 5135W        W 8733   4.883   3.565   0.529 -0.0378 -0.1255 -0.1282
 5136W        W 8734   7.438  13.216   0.036 -0.3573 -0.1194  0.1566
 5137W        W 8735  13.684   6.518   0.096  0.1973 -0.1009 -0.2520
 5138W        W 8736  15.500  10.608   7.711 -0.0592 -0.2621  0.1351
 5139W        W 8737  14.966  10.800   9.116  0.1255 -0.1898  0.2161
 5140W        W 8738   0.352   9.394   9.372 -0.0807 -0.1446 -0.0510
 5141W        W 8739  10.912  10.457  11.629 -0.0283  0.1462  0.3818
 5142W        W 8740  12.370   2.295  10.805  0.0051  0.0718 -0.1779
 5143W        W 8741  13.476  14.231  14.852 -0.5593 -0.2704 -0.0429
 5144W        W 8742   8.382   3.459   6.726 -0.0906  0.1782  0.2308
 5145W        W 8743  10.845  14.782   8.206  0.0846 -0.2412  0.1171
 5146W        W 8744  15.690   3.964   9.905  0.0434  0.1230 -0.1075
 5147W        W 8745   8.574   9.597   8.150  0.0123 -0.2479  0.0131
 5148W        W 8746   0.180  13.738   0.469  0.0454 -0.1801 -0.1518
 5149W        W 8747  10.446   7.826  13.007  0.2033  0.3168  0.2475
 5150W        W 8748  14.084   1.556   3.177  0.0399  0.0174  0.0775
 5151W        W 8749   9.014   5.276  10.705  0.0085  0.2081  0.0450
 5152W        W 8750   1.990   3.324   8.077 -0.1896 -0.1730 -0.0581
 5153W        W 8751  12.848   6.901  15.847 -0.1216 -0.2718  0.1937
 5154W        W 8752   6.342   5.547   0.551 -0.0030  0.1249 -0.1342
 5155W        W 8753  14.127  14.946  11.818 -0.0577 -0.0362  0.1466
 5156W        W 8754   9.188   2.084   9.679 -0.0973  0.0161  0.1067
 5157W        W 8755   9.289   1.443   0.188  0.2414  0.1308  0.0951
 5158W        W 8756   4.821   8.153   1.984  0.2631 -0.1076  0.1398
 5159W        W 8757   7.366   2.246   1.293 -0.2653 -0.0239  0.3009
 5160W        W 8758   5.101  16.190   8.771 -0.3115  0.2352  0.0831
 5161W        W 8759   4.516  16.105   1.016 -0.0256 -0.0207 -0.1109
 5162W        W 8760   6.452   3.265   7.371 -0.1395  0.2799  0.0294
 5163W        W 8761   7.192  12.721  15.666  0.3015 -0.0697  0.2651
 5164W        W 8762   7.898   7.958   7.903 -0.0369  0.1549 -0.0430
 5165W        W 8763   8.823   7.887  14.669  0.2079  0.1156 -0.0260
 5166W        W 8764  12.395   3.094   7.749  0.0400 -0.1669 -0.3263
 5167W        W 8765  12.180  11.336   6.424 -0.2268 -0.0576  0.3120
 5168W        W 8766  13.089   2.935   4.653 -0.0786 -0.1371  0.1177
 5169W        W 8767   1.211  12.124   2.293 -0.1579  0.3048  0.1200
 5170W        W 8768   2.233   0.375   9.615  0.1182  0.0751  0.0460
 5171W        W 8769   9.205  12.990   1.413 -0.0449  0.1265 -0.0500
 5172W        W 8770   0.054  10.278  12.393 -0.1107 -0.3825 -0.1158
 5173W        W 8771  12.550   9.113   7.148  0.1777 -0.0582 -0.0066
 5174W        W 8772   1.067  15.197   8.977  0.1378  0.3613  0.2182
 5175W        W 8773  13.209   7.501   7.974  0.2268  0.1758 -0.1439
 5176W        W 8774   2.495   5.302   8.867  0.2661 -0.1651 -0.0973
 5177W        W 8775  11.924   9.209  11.474  0.0214  0.1727  0.2489
 5178W        W 8776  14.932   6.759  11.008  0.1320 -0.0815  0.1245
 5179W        W 8777  13.549   8.698   9.951  0.2234  0.2714  0.1733
 5180W        W 8778  14.763  12.673  15.460  0.2231  0.2886  0.1475
 5181W        W 8779   4.116   8.566  10.197  0.0713 -0.0972 -0.0805
 5182W        W 8780  13.295   2.695   2.095  0.2582  0.1268 -0.0726
 5183W        W 8781   3.741   8.937   4.839 -0.3533  0.0127  0.0159
 5184W        W 8782   8.372   9.737  10.200 -0.2729 -0.3395 -0.0154
 5185W        W 8783  15.517   9.844   0.101 -0.0970  0.0584 -0.1034
 5186W        W 8784  15.071  15.402  13.854  0.0845  0.0139 -0.1641
 5187W        W 8785   4.737  13.164  10.651  0.1964 -0.0863  0.3112
 5188W        W 8786  11.700   0.077   6.360 -0.0850  0.1121 -0.2837
 5189W        W 8787   9.674  11.899   3.037  0.0144  0.2547 -0.4245
 5190W        W 8788  11.350   8.233   0.344 -0.2921  0.0629 -0.1069
 5191W        W 8789  15.242  16.071   3.409 -0.1557 -0.0040  0.0853
 5192W        W 8790  11.395   1.484  10.476 -0.0864 -0.1411  0.1299
 5193W        W 8791  14.925  12.951   1.709 -0.2105 -0.1503 -0.5120
 5194W        W 8792   4.159  13.705  12.381 -0.1639 -0.3639 -0.0692
 5195W        W 8793   6.781  12.579  14.859  0.1089 -0.0324  0.0310
 5196W        W 8794   1.708   8.778   4.847  0.1978 -0.2131 -0.0938
 5197W        W 8795   6.130   0.496  14.922 -0.0585  0.0737 -0.0467
 5198W        W 8796   7.411  11.908   3.616  0.0533 -0.0635 -0.4445
 5199W        W 8797   0.872   4.833  12.315  0.0074 -0.1309  0.2592
 5200W        W 8798   6.683   9.258   8.185 -0.1115  0.0603 -0.0891
 5201W        W 8799   4.226  14.523  10.330 -0.0452  0.1706  0.2355
 5202W        W 8800   3.405   2.122  16.378 -0.0750 -0.0162  0.1836
 5203W        W 8801  12.577  14.782   1.108 -0.1160 -0.2334 -0.1765
 5204W        W 8802   9.620   8.053  11.563  0.5600  0.2346 -0.3008
 5205W        W 8803  13.783   6.726   8.102  0.3261  0.0069  0.1569
 5206W        W 8804  15.980   8.724   8.290 -0.1588 -0.2651 -0.1889
 5207W        W 8805  11.233  14.916   7.949 -0.4533 -0.0305 -0.2876
 5208W        W 8806   7.459   1.867  16.046  0.0064 -0.1035  0.0074
 5209W        W 8807   3.729   8.657   7.141  0.0955 -0.1351  0.4788
 5210W        W 8808   6.609  13.719   2.572 -0.0144  0.2888  0.1891
 5211W        W 8809  14.443   4.886   1.378  0.0231  0.3146  0.0532
 5212W        W 8810   1.965   7.283   4.684  0.0978  0.0964 -0.1174
 5213W        W 8811   2.316  11.170  15.504 -0.0744 -0.1378 -0.0877
 5214W        W 8812   5.754  10.694  10.080  0.1043  0.1000 -0.0111
 5215W        W 8813  11.856  16.088   9.934  0.0865 -0.1951  0.1672
 5216W        W 8814   0.547  11.151   6.523 -0.2499 -0.2443  0.0505
 5217W        W 8815   2.570   8.897   5.025 -0.0662  0.2590  0.2519
 5218W        W 8816   7.090  13.729   6.132 -0.0941  0.2766  0.0529
 5219W        W 8817  13.006   8.644   8.455 -0.1291  0.2545 -0.0548
 5220W        W 8818   1.938   5.887   7.632 -0.1205 -0.0214 -0.1057
 5221W        W 8819  13.972  10.973   9.103  0.0060  0.3676  0.1258
 5222W        W 8820   8.133  10.243   2.885 -0.0850  0.0204  0.1676
 5223W        W 8821   2.407   2.934   0.683  0.0307 -0.0189 -0.1118
 5224W        W 8822   9.484  14.018   5.305  0.0145 -0.2001  0.0969
 5225W        W 8823   8.620   2.580  14.990 -0.4297 -0.1494 -0.0789
 5226W        W 8824   2.354   1.817  13.242  0.2995  0.3980 -0.0928
 5227W        W 8825  16.208   8.917  15.884 -0.1873 -0.2656 -0.4141
 5228W        W 8826   3.613   7.022   7.649  0.2500  0.1925 -0.1258
 5229W        W 8827   7.009   3.336  11.538  0.0271 -0.3448 -0.0641
 5230W        W 8828  10.328   1.440   9.102 -0.0199 -0.0669  0.2190
 5231W        W 8829  12.323  12.207   0.703  0.0112 -0.0579 -0.2196
 5232W        W 8830   6.704   7.028  11.330  0.2220  0.0108 -0.1054
 5233W        W 8831  10.186  11.263   4.010  0.0508  0.0222  0.1178
 5234W        W 8832  13.053   0.414   0.763  0.1482  0.1280 -0.2667
 5235W        W 8833   6.599   1.522   8.898  0.0493 -0.3867  0.1457
 5236W        W 8834   0.722   4.344  12.329  0.0287  0.1090  0.0754
 5237W        W 8835  12.666   8.169  11.441  0.0790  0.3212  0.0747
 5238W        W 8836   4.108   5.199  12.794  0.2908  0.2781 -0.1226
 5239W        W 8837   0.065   0.656   5.540 -0.0204  0.0640 -0.1479
 5240W        W 8838  12.491   4.838  15.223 -0.1076  0.1221  0.2938
 5241W        W 8839  14.511  14.583  14.057  0.1894 -0.2799  0.0271
 5242W        W 8840   2.230   9.196   1.594 -0.0160 -0.0441  0.1295
 5243W        W 8841  12.981   8.127   6.286 -0.2293  0.0189 -0.0902
 5244W        W 8842   7.967   4.507   6.271 -0.0517  0.2663 -0.1882
 5245W        W 8843   4.057  16.154   8.185 -0.1583 -0.0952 -0.2078
 5246W        W 8844   4.965   4.544  14.297  0.0188  0.0686  0.0676
 5247W        W 8845  13.974  13.633   1.698  0.1153  0.2053 -0.1230
 5248W        W 8846   8.557  12.474   0.828 -0.0074 -0.2557  0.2621
 5249W        W 8847  10.621  10.991   4.175  0.4128  0.0112  0.0546
 5250W        W 8848  13.395  13.169  13.017 -0.0828  0.0671  0.5047
 5251W        W 8849  14.757   4.781   9.627 -0.3877  0.1156  0.3430
 5252W        W 8850   4.389   7.882   1.692 -0.0518  0.1797  0.1124
 5253W        W 8851  16.104   7.734   5.832 -0.0256 -0.2288 -0.1243
 5254W        W 8852  15.381   4.352   2.855  0.1559  0.3316 -0.4618
 5255W        W 8853   1.479   9.652   6.725 -0.0098  0.1125 -0.2038
 5256W        W 8854   7.492  11.804   9.229  0.2002  0.2878  0.0090
 5257W        W 8855   7.763   3.649  11.254 -0.0626  0.2393  0.0455
 5258W        W 8856  10.350  12.484  10.246 -0.0127  0.1792  0.0091
 5259W        W 8857   4.270  11.397   5.541  0.0042  0.4081 -0.0164
 5260W        W 8858   7.253   4.095   6.090  0.1935 -0.0554 -0.1423
 5261W        W 8859  14.012   3.023  13.774  0.2805  0.1622 -0.0536
 5262W        W 8860  12.736  16.258   6.621 -0.0125  0.1281 -0.0586
 5263W        W 8861   2.822  13.212   0.607 -0.1498 -0.2562  0.0183
 5264W        W 8862  11.638   4.083   2.170 -0.2830 -0.3113  0.3209
 5265W        W 8863  10.790   0.918   6.436  0.0278 -0.3864  0.1744
 5266W        W 8864   0.118   2.336   1.476 -0.0201  0.3045  0.0916
 5267W        W 8865   3.427   4.638   6.884  0.0894 -0.0918  0.0270
 5268W        W 8866   2.976   0.167   4.345  0.3028  0.0934  0.0359
 5269W        W 8867   0.403   1.837  11.305  0.0468 -0.1579 -0.2178
 5270W        W 8868  11.939   9.542   8.702  0.0759 -0.0554 -0.0317
 5271W        W 8869   4.834  10.171  10.582  0.0776  0.0176  0.0370
 5272W        W 8870   7.395   2.484  13.029 -0.3614 -0.2612 -0.0488
 5273W        W 8871  14.902   5.484   9.152 -0.4127  0.0753  0.4256
 5274W        W 8872   2.820   3.831  13.798  0.0025  0.0007  0.0006
 5275W        W 8873   7.539  12.284   9.171  0.1659  0.0234 -0.1387
 5276W        W 8874  12.244   0.438  14.219 -0.1883  0.0174 -0.1157
 5277W        W 8875  13.597  15.477   1.419 -0.0972 -0.1137  0.3330
 5278W        W 8876   0.250   7.428   2.866 -0.2270  0.2109 -0.1090
 5279W        W 8877  15.491   7.791   8.439  0.0049 -0.0664 -0.2618
 5280W        W 8878   3.129   3.317   8.911 -0.2632  0.0422 -0.0508
 5281W        W 8879  15.940   6.869   7.039  0.0813 -0.1864  0.1897
 5282W        W 8880   2.687  16.015  14.313 -0.0205 -0.1836  0.1536
 5283W        W 8881  15.721   2.524  15.416 -0.2926  0.0439  0.0751
 5284W        W 8882   9.615   7.580   1.998  0.0521  0.1165  0.0762
 5285W        W 8883   2.016   4.411  15.429 -0.0703 -0.1159  0.0248
 5286W        W 8884   5.553   9.150   4.330  0.0679 -0.0663 -0.0153
 5287W        W 8885   1.975   9.901   7.412 -0.3585  0.2075 -0.0915
 5288W        W 8886   2.546   1.138  15.482 -0.2297 -0.0633 -0.0547
 5289W        W 8887   1.053   2.880   5.543  0.3143  0.0067 -0.0951
 5290W        W 8888  12.953   6.970   1.282  0.1038 -0.0166  0.0744
 5291W        W 8889  13.026  13.780  15.755  0.4045  0.1451 -0.1813
 5292W        W 8890  10.514  12.234   1.429  0.1358 -0.0155  0.1759
 5293W        W 8891  11.034   2.855  11.295 -0.2108 -0.0771 -0.0691
 5294W        W 8892   6.273  11.170  16.286  0.0377  0.2354 -0.1523
 5295W        W 8893   4.234   8.771   0.679  0.0051 -0.2142 -0.1196
 5296W        W 8894  12.697   2.429   5.807  0.1585 -0.0806 -0.1587
 5297W        W 8895  11.915   2.151  15.470 -0.0772  0.1008  0.0324
 5298W        W 8896   0.251  15.649   2.852  0.2465 -0.2923 -0.0563
 5299W        W 8897   2.192  13.714  10.463 -0.1189  0.1809 -0.2513
 5300W        W 8898   7.525   8.660  11.060  0.2030  0.0531  0.0852
 5301W        W 8899   8.399   6.726  14.577 -0.2058 -0.3735 -0.1689
 5302W        W 8900   1.014   8.710  10.372  0.2401 -0.1167 -0.1297
 5303W        W 8901   5.262  10.864  10.161  0.1133 -0.0363  0.2049
 5304W        W 8902  15.662   0.420   5.118 -0.1558  0.0021  0.1083
 5305W        W 8903   0.643   5.188   2.165  0.1752  0.1101  0.0566
 5306W        W 8904  13.633   3.238   7.460  0.0489  0.0091 -0.0980
 5307W        W 8905  14.282   9.989   1.978  0.0921  0.1782 -0.1653
 5308W        W 8906   6.725   9.176   6.158 -0.1420  0.0101  0.0556
 5309W        W 8907   6.478  15.100   2.877  0.1779  0.3858 -0.0766
 5310W        W 8908   3.153   6.779   6.770 -0.0341 -0.1744  0.3590
 5311W        W 8909  12.388   3.503   1.660 -0.0343  0.2342 -0.3631
 5312W        W 8910   3.352   5.684   3.372  0.0969 -0.0993 -0.1055
 5313W        W 8911   4.185  12.932   8.530  0.1997 -0.1363  0.1710
 5314W        W 8912   6.239   3.662  14.941 -0.1264 -0.1966  0.1836
 5315W        W 8913  13.551  16.115  13.659 -0.1304  0.2007  0.0772
 5316W        W 8914   7.395   7.980   5.149 -0.0321 -0.2947 -0.0357
 5317W        W 8915  13.405  14.957   7.159 -0.3882  0.0256 -0.1654
 5318W        W 8916  13.516   8.535   7.919  0.3420  0.0198  0.0223
 5319W        W 8917   8.837  12.888  13.928 -0.2640  0.1179  0.0944
 5320W        W 8918   5.322   1.140  13.536 -0.2498 -0.1146 -0.2615
 5321W        W 8919  15.677  13.602  14.439  0.2751  0.2796 -0.2999
 5322W        W 8920   8.051  14.861   9.748 -0.1760 -0.0648 -0.1619
 5323W        W 8921  12.754  14.434  16.133 -0.0110  0.1268  0.2835
 5324W        W 8922   8.110  13.918   9.171 -0.0335  0.0048 -0.2202
 5325W        W 8923  12.484   7.678  13.347 -0.1777  0.2691 -0.0263
 5326W        W 8924  15.588  14.452  14.188 -0.1381  0.1444  0.0673
 5327W        W 8925   8.754   0.385   3.807 -0.0291  0.1803 -0.0079
 5328W        W 8926   8.774   3.876  14.753  0.3178  0.2495 -0.1244
 5329W        W 8927   4.509  16.212   4.135  0.1216 -0.0150  0.1950
 5330W        W 8928   4.563  12.564   1.162 -0.0544 -0.0773 -0.1302
 5331W        W 8929   9.843  14.710   7.307  0.1328  0.2179 -0.0577
 5332W        W 8930   2.067   3.565  10.516 -0.0825 -0.0573  0.0827
 5333W        W 8931   6.836   2.491   9.210 -0.1649 -0.1313  0.0179
 5334W        W 8932   6.140   1.134  11.023 -0.2247 -0.2458  0.2960
 5335W        W 8933   8.253   4.819  10.319 -0.1379 -0.0107 -0.3459
 5336W        W 8934   2.130   1.358   2.508  0.0315 -0.2244  0.0523
 5337W        W 8935  16.219   0.506   1.704  0.1523  0.0073 -0.1723
 5338W        W 8936   4.325  10.687  14.845 -0.0938  0.1394  0.0416
 5339W        W 8937   8.217   3.914  11.359 -0.1593 -0.0814  0.1302
 5340W        W 8938  11.775   6.947   0.627 -0.3332  0.1666 -0.1572
 5341W        W 8939   7.514  10.888   8.715  0.3127 -0.0378 -0.0890
 5342W        W 8940   6.598  12.594   3.388  0.0596 -0.2971 -0.0596
 5343W        W 8941  14.889  14.664   7.222 -0.2699  0.1354  0.4824
 5344W        W 8942   1.101  16.296   8.283 -0.2599  0.0832 -0.1670
 5345W        W 8943  10.658   5.317   3.303 -0.1671 -0.2242 -0.1037
 5346W        W 8944  13.418  10.386   3.747  0.0507  0.0973  0.1787
 5347W        W 8945   3.409   7.649   0.264  0.2220  0.1212 -0.1165
 5348W        W 8946   1.130   5.172   2.024 -0.0188  0.0578  0.1986
 5349W        W 8947   6.392   8.010  13.804 -0.0145 -0.0280 -0.1549
 5350W        W 8948   4.022   3.662   5.025 -0.1414  0.0384  0.1258
 5351W        W 8949   9.197   1.381   7.017 -0.0234 -0.1591 -0.2155
 5352W        W 8950   0.081   0.907  12.238  0.0266 -0.1186  0.0519
 5353W        W 8951  13.832  10.566   6.282  0.3027  0.0209  0.3516
 5354W        W 8952  12.356   1.929  12.727 -0.2399 -0.0889 -0.0688
 5355W        W 8953  11.073  11.085   0.277  0.1859 -0.0056 -0.1168
 5356W        W 8954   1.649  12.781  15.622  0.0384  0.1678 -0.0359
 5357W        W 8955   7.667   5.655  16.363  0.0188 -0.2952 -0.1039
 5358W        W 8956  13.632   9.246  15.399 -0.0643  0.0311 -0.2231
 5359W        W 8957  10.476  14.199   2.911 -0.5308  0.0097 -0.2148
 5360W        W 8958   7.614   8.960   5.686 -0.3121  0.2795  0.1885
 5361W        W 8959   4.406   1.038   8.376 -0.1064  0.3386 -0.1613
 5362W        W 8960  11.025   4.176   4.336  0.0085  0.2518  0.2626
 5363W        W 8961  14.133   8.801  11.729 -0.1837  0.2352 -0.0149
 5364W        W 8962  14.538   7.960   4.171 -0.0286 -0.0934  0.0130
 5365W        W 8963  14.021   2.731   4.410 -0.2822  0.1997 -0.1745
 5366W        W 8964  11.709  11.973   4.695  0.1099  0.1346 -0.1857
 5367W        W 8965  14.637   3.045  14.110  0.0258 -0.0301  0.1947
 5368W        W 8966   9.191   9.480   1.110  0.2581 -0.0552 -0.0194
 5369W        W 8967   1.608  13.970   4.201 -0.1159 -0.3260  0.1755
 5370W        W 8968   2.010   0.847   1.055 -0.0811  0.1783 -0.1106
 5371W        W 8969   0.711   8.355   9.578 -0.1520 -0.2929  0.2643
 5372W        W 8970  13.335  12.772   0.708  0.0135  0.0186 -0.3131
 5373W        W 8971   9.483   0.890   3.634 -0.1055  0.1846  0.0859
 5374W        W 8972  11.163   3.060  12.824  0.0132 -0.0371  0.1081
 5375W        W 8973   0.097  10.820   4.514  0.2111  0.0398  0.1176
 5376W        W 8974   3.281  15.101  11.074 -0.0809 -0.3954 -0.0317
 5377W        W 8975   5.048  13.416  11.237 -0.0947 -0.1193  0.0210
 5378W        W 8976   3.720  10.833   4.418  0.1350  0.1004 -0.0350
 5379W        W 8977  11.241   8.340  10.736 -0.0955 -0.3198 -0.1559
 5380W        W 8978  13.580  11.737   3.785  0.0099  0.1924  0.1009
 5381W        W 8979   5.590  15.789   2.350 -0.2653  0.0394  0.2021
 5382W        W 8980   4.216   8.337  11.381  0.0985 -0.1923 -0.0623
 5383W        W 8981   8.937  10.176  11.621 -0.0928 -0.0803 -0.0046
 5384W        W 8982   9.239  11.529   8.896  0.0042 -0.0680 -0.2326
 5385W        W 8983   7.536  13.729  11.979  0.1741 -0.0474  0.1449
 5386W        W 8984  15.796   2.263   6.302  0.1776  0.0291  0.0301
 5387W        W 8985   4.226   4.458  10.639  0.2588  0.0515 -0.1649
 5388W        W 8986  11.048   9.421   0.723 -0.1254 -0.0639  0.0231
 5389W        W 8987   9.438  14.807   3.664  0.1445 -0.1388  0.0902
 5390W        W 8988   8.146  12.522   1.080  0.2409  0.0812 -0.0788
 5391W        W 8989  13.127   2.544   5.161  0.0668 -0.0852 -0.0894
 5392W        W 8990   3.809   6.031  11.880  0.1195 -0.2892 -0.0526
 5393W        W 8991  15.088  10.614   4.219  0.2415  0.1478 -0.1026
 5394W        W 8992  10.354   2.029   0.037 -0.3665 -0.0483  0.0135
 5395W        W 8993   4.037  14.452   8.040  0.0096  0.1424  0.1545
 5396W        W 8994   8.788   3.297   8.007 -0.3185 -0.1936  0.1889
 5397W        W 8995  15.495   2.730   2.833  0.0854 -0.0228  0.3177
 5398W        W 8996  15.840  14.529   4.224 -0.2561  0.3683  0.2863
 5399W        W 8997   1.241  11.407   6.526 -0.6126 -0.1896 -0.0601
 5400W        W 8998  16.154   1.781   7.430 -0.2397  0.2548  0.1982
 5401W        W 8999   0.546  16.142   8.305 -0.0842  0.1649 -0.1413
 5402W        W 9000   7.760   5.511   0.741  0.0116 -0.0363 -0.1509
 5403W        W 9001  15.596   4.829   1.584 -0.0849 -0.0437  0.2650
 5404W        W 9002  12.429   6.518  11.230  0.0981  0.0125  0.0353
 5405W        W 9003   1.474   9.748   2.449  0.2532 -0.1315  0.0213
 5406W        W 9004  16.377   6.519   6.194  0.4187  0.2024  0.0365
 5407W        W 9005   3.829   8.505   2.258  0.0227 -0.0029 -0.1054
 5408W        W 9006   0.327   7.436   4.293  0.1739  0.3600  0.0930
 5409W        W 9007   3.652  14.814  12.192 -0.3334  0.1738 -0.0312
 5410W        W 9008   6.146  15.448  13.674  0.0892  0.1355  0.3282
 5411W        W 9009   3.157   6.492  13.550  0.0042 -0.0312  0.5168
 5412W        W 9010   6.364  13.520   2.115 -0.0197  0.1128  0.0824
 5413W        W 9011  11.107   9.839  14.857  0.1604  0.2285 -0.1207
 5414W        W 9012  13.568  11.676   6.836  0.0113 -0.4401  0.2007
 5415W        W 9013  11.920  15.963   6.380 -0.1444  0.2322  0.0667
 5416W        W 9014   2.841   3.788  12.473 -0.2140 -0.1079  0.4991
 5417W        W 9015   9.889  10.487  12.476 -0.1788  0.0287  0.3537
 5418W        W 9016   3.750  14.370   6.160 -0.1453 -0.1366  0.1746
 5419W        W 9017  15.308   3.124   3.619  0.4170 -0.0149 -0.0215
 5420W        W 9018   9.111  10.717   3.990 -0.0845  0.0131 -0.1619
 5421W        W 9019   3.479   8.964  14.808  0.0793  0.2769  0.0352
 5422W        W 9020   3.957   4.997   9.114  0.0576 -0.3239  0.0266
 5423W        W 9021   9.885   8.451   1.678  0.3222 -0.1263  0.0749
 5424W        W 9022   3.224   9.202   2.660 -0.1130 -0.1237  0.0335
 5425W        W 9023  10.290  11.284   7.393  0.1138 -0.0372  0.2182
 5426W        W 9024  14.684   9.213   4.038 -0.1995 -0.0809  0.0351
 5427W        W 9025  12.525  13.465   2.532 -0.0648 -0.1329  0.2812
 5428W        W 9026   7.622  12.275  15.224 -0.1148  0.3286 -0.0050
 5429W        W 9027   7.153  12.844   0.936  0.1872  0.2266  0.0336
 5430W        W 9028   7.547   5.803  11.271  0.1098  0.0987  0.1295
 5431W        W 9029   8.708   7.417   2.698 -0.0618 -0.0615 -0.2359
 5432W        W 9030   1.132   7.768   8.987  0.0434 -0.2111 -0.2211
 5433W        W 9031   1.750  12.644   6.704  0.4231  0.1917  0.0838
 5434W        W 9032   3.893   8.105  15.451 -0.0895 -0.2126  0.0355
 5435W        W 9033   8.528   2.770   4.340 -0.0651 -0.0475 -0.0932
 5436W        W 9034  13.669   8.938   8.821 -0.1605 -0.0171 -0.1506
 5437W        W 9035  11.278   0.684   2.170  0.0664 -0.0670  0.4107
 5438W        W 9036   8.957   0.586   8.452  0.1819 -0.2414  0.0483
 5439W        W 9037   9.721   9.235   9.324  0.0290  0.1316  0.3351
 5440W        W 9038   9.953   4.852   8.284 -0.1618  0.2583 -0.0243
 5441W        W 9039   5.450  13.536  11.468  0.1724  0.0709  0.0287
 5442W        W 9040  15.742   0.584  11.576  0.0549  0.4988  0.1511
 5443W        W 9041   4.078   4.915   3.752 -0.2324 -0.0290  0.2454
 5444W        W 9042   8.982   0.478  11.209 -0.1779 -0.0805  0.1664
 5445W        W 9043   3.792   8.249   2.835 -0.0320  0.0974 -0.0744
 5446W        W 9044   5.745   2.105  12.535 -0.0333  0.1346 -0.0521
 5447W        W 9045   9.674   6.727   9.315  0.2215 -0.0792 -0.2544
 5448W        W 9046   3.363  12.776   8.497  0.2514 -0.0180  0.1138
 5449W        W 9047  12.956   6.974  14.521 -0.0652  0.3185 -0.3653
 5450W        W 9048   6.346   2.254   5.495 -0.5138  0.1014  0.1663
 5451W        W 9049   1.622  16.266   3.336 -0.0262 -0.1857  0.1342
 5452W        W 9050  13.953   2.742  13.345  0.4434 -0.2057  0.3238
 5453W        W 9051   6.386   8.733   2.312  0.2890 -0.1822 -0.0764
 5454W        W 9052   7.153  11.619  13.612 -0.4086 -0.0960  0.0682
 5455W        W 9053   0.660   8.525   5.355  0.0950 -0.0649 -0.2262
 5456W        W 9054   1.706   5.813  12.108 -0.3191  0.3340  0.1564
 5457W        W 9055   2.039  15.551  11.737  0.0881  0.0713 -0.1248
 5458W        W 9056  16.132   6.944   1.361  0.1059 -0.1629  0.3536
 5459W        W 9057  12.312   2.172   5.679  0.2452 -0.3534  0.0047
 5460W        W 9058  12.460  12.945   0.499 -0.2202  0.2956  0.1604
 5461W        W 9059  14.072   9.693   4.950  0.0795 -0.0746  0.0880
 5462W        W 9060   3.698   3.268   8.050 -0.0548  0.2452 -0.1176
 5463W        W 9061   8.460  12.986   8.103 -0.0873  0.1251 -0.1295
 5464W        W 9062   6.339   0.408   0.347 -0.0515  0.0534 -0.1731
 5465W        W 9063   5.742  15.246   4.375  0.1324  0.0025 -0.4474
 5466W        W 9064  10.644   2.466   3.542 -0.0743  0.0265  0.0466
 5467W        W 9065  13.073  10.345   5.918  0.0889 -0.0951 -0.0026
 5468W        W 9066  12.241   7.908  11.690 -0.1056 -0.1982  0.0641
 5469W        W 9067   7.951   1.273   8.140 -0.0693 -0.1266 -0.0175
 5470W        W 9068   4.548   3.046   6.669 -0.0105  0.2688  0.1652
 5471W        W 9069   8.722   3.389  15.769  0.1633  0.1052 -0.1600
 5472W        W 9070  12.526  13.505   7.877  0.0138 -0.0909 -0.2404
 5473W        W 9071   6.582   8.864   3.075  0.0142  0.3258 -0.1804
 5474W        W 9072   9.494   5.531   1.426 -0.4027  0.2509 -0.3809
 5475W        W 9073  13.648   1.418   6.137  0.0718 -0.0562 -0.0805
 5476W        W 9074  14.633   0.117   6.281 -0.2313  0.1141  0.2764
 5477W        W 9075   4.150  11.448  14.163  0.3796 -0.1770  0.1848
 5478W        W 9076  11.815   3.653   7.195  0.1356  0.2102  0.0340
 5479W        W 9077   1.799  11.398   5.197  0.1828 -0.2330 -0.2072
 5480W        W 9078  14.400  10.554   6.406  0.1293  0.0949 -0.0061
 5481W        W 9079   7.274   5.188   2.829  0.2292  0.0898 -0.0631
 5482W        W 9080   0.979   1.622  10.764  0.0785 -0.1875 -0.1772
 5483W        W 9081   3.619  10.589  12.628 -0.2652 -0.3320 -0.4786
 5484W        W 9082   1.013   5.986  15.272  0.0220 -0.1284  0.1811
 5485W        W 9083   3.085   3.323  12.383  0.1260 -0.1281  0.1493
 5486W        W 9084  15.495  11.829   5.781  0.0997  0.3624  0.0120
 5487W        W 9085  10.115  10.988   3.131  0.0316  0.1479 -0.0409
 5488W        W 9086  16.072  14.882  15.114 -0.0243 -0.4846  0.2361
 5489W        W 9087   8.656   6.063   0.990  0.1531  0.1404 -0.0026
 5490W        W 9088   2.081   3.078   9.579  0.3379  0.1145  0.0625
 5491W        W 9089   1.978   8.498   2.134 -0.3442  0.0409  0.1808
 5492W        W 9090   1.665  14.541   2.180 -0.1380 -0.1311 -0.4028
 5493W        W 9091   2.183   9.422  14.691  0.0817 -0.0353  0.1401
 5494W        W 9092   0.882  11.380   4.235 -0.3821  0.0178 -0.0234
 5495W        W 9093  15.964   4.972  15.574  0.0004  0.0073 -0.1569
 5496W        W 9094  14.627   3.751   4.194  0.0887  0.1420 -0.2533
 5497W        W 9095   4.050   8.400   9.691  0.0114  0.1333 -0.0872
 5498W        W 9096   0.466  15.030   7.012 -0.0415  0.0818 -0.4008
 5499W        W 9097   0.012   2.156   3.579 -0.1110 -0.4297  0.2068
 5500W        W 9098   9.059  13.538  12.109 -0.0985 -0.1659  0.2155
 5501W        W 9099   6.047   7.377   6.222  0.0612 -0.3215 -0.2228
 5502W        W 9100   2.966  15.196   4.271  0.2235 -0.1302 -0.1645
 5503W        W 9101   4.114   9.512   6.652  0.0503 -0.1491 -0.0750
 5504W        W 9102   4.348  10.007  12.135  0.0514  0.0700  0.1036
 5505W        W 9103  12.685   9.667   7.624  0.1644 -0.2347 -0.1322
 5506W        W 9104   6.023  10.506   2.782  0.0441  0.1928 -0.1066
 5507W        W 9105  14.475   8.633   3.387 -0.3070 -0.2263  0.0543
 5508W        W 9106   7.535   7.562   6.349  0.0338  0.0935  0.3542
 5509W        W 9107  10.743  11.200   0.651 -0.0137 -0.2076 -0.1684
 5510W        W 9108   5.025   2.905   6.882 -0.1062 -0.1606  0.1645
 5511W        W 9109   7.586   8.899   1.357 -0.4161 -0.0756 -0.1679
 5512W        W 9110  13.783   5.022   9.474  0.3627  0.0719 -0.0980
 5513W        W 9111   5.191   4.063  15.781 -0.2147 -0.1623 -0.0962
 5514W        W 9112   3.855  11.261  13.736 -0.0159  0.0085  0.1393
 5515W        W 9113   9.289   4.642   4.350 -0.4438  0.0773 -0.0419
 5516W        W 9114   4.568  13.477   0.992 -0.3693 -0.4554  0.1547
 5517W        W 9115  12.088   8.066  16.135  0.1824  0.0837  0.0451
 5518W        W 9116  13.561   4.224   4.002  0.2395 -0.0067 -0.0287
 5519W        W 9117  12.700  13.578   9.554  0.2556 -0.2224  0.4770
 5520W        W 9118  13.571   5.412   8.757  0.1014 -0.1787 -0.1684
 5521W        W 9119   7.034   1.502   7.564  0.0583  0.1032  0.0039
 5522W        W 9120  16.088   4.818   3.188 -0.1732 -0.2924 -0.0587
 5523W        W 9121  15.511   4.304   0.279  0.1547 -0.2641 -0.3034
 5524W        W 9122   5.161  11.181  10.967  0.0167 -0.0198 -0.0729
 5525W        W 9123   0.371   9.508   2.543 -0.3670 -0.0681  0.2632
 5526W        W 9124  15.502  12.532   6.432  0.0126 -0.0779  0.0242
 5527W        W 9125  11.244   8.374   1.782  0.1585 -0.3763 -0.1340
 5528W        W 9126  12.604   0.720  10.806  0.0819 -0.3807 -0.2859
 5529W        W 9127   3.091  12.905   3.341 -0.0806 -0.0415 -0.0467
 5530W        W 9128   3.577   8.918   0.020  0.1816 -0.1623  0.1734
 5531W        W 9129  14.180  13.639   7.696 -0.0486  0.1156  0.0595
 5532W        W 9130  14.631  10.629  14.614  0.1309  0.2102  0.0953
 5533W        W 9131  12.732   5.354  12.370  0.2552  0.1057 -0.2021
 5534W        W 9132  11.747  11.466  11.529  0.0356 -0.4219  0.0473
 5535W        W 9133   1.746   6.067  12.513 -0.0497  0.3322  0.1428
 5536W        W 9134   1.002   9.932  12.173  0.1485 -0.2918  0.1326
 5537W        W 9135   8.207   9.245  14.412 -0.1415 -0.0879  0.3183
 5538W        W 9136   9.461   0.779   4.894 -0.0476 -0.0766 -0.2001
 5539W        W 9137   8.164  12.978   7.553  0.0277 -0.0734 -0.2764
 5540W        W 9138   8.642   1.659  12.905 -0.0311 -0.0391 -0.0712
 5541W        W 9139  10.148  12.444  14.365 -0.0656  0.2569  0.0984
 5542W        W 9140  10.135  14.722   4.143 -0.2588  0.2238 -0.1183
 5543W        W 9141   5.384   7.152  13.431 -0.0688  0.1454  0.2545
 5544W        W 9142   7.842   5.831  12.807  0.0341  0.3064 -0.1330
 5545W        W 9143   2.578  11.044  12.413  0.0724 -0.3193 -0.3137
 5546W        W 9144   4.565  14.570  12.062 -0.0694 -0.0844  0.0275
 5547W        W 9145  11.583   0.950   2.406  0.1731 -0.0586 -0.0421
 5548W        W 9146  15.870   5.807   7.991  0.0416 -0.4338  0.1234
 5549W        W 9147   2.543  14.609   8.264 -0.1806  0.2482  0.2058
 5550W        W 9148  14.293   7.864   7.709 -0.1187  0.0857 -0.1313
 5551W        W 9149   7.527   6.994   8.643 -0.1178  0.0841  0.1594
 5552W        W 9150   0.008  14.833  14.326  0.0612  0.0239 -0.1775
 5553W        W 9151  12.946  13.885  13.637  0.0642 -0.2444 -0.2517
 5554W        W 9152   8.991   2.806   9.147 -0.0809  0.0147 -0.1302
 5555W        W 9153   7.734   7.553  14.117  0.0162  0.0424  0.1411
 5556W        W 9154   0.782  15.538  12.890  0.2146  0.0677 -0.0579
 5557W        W 9155  15.564   2.894   7.811 -0.0975 -0.0637 -0.3712
 5558W        W 9156  11.626  14.325   1.654  0.3073  0.0128 -0.0502
 5559W        W 9157  13.941   1.049  11.608 -0.0617  0.0056 -0.0103
 5560W        W 9158   1.230  15.726  10.880 -0.2225 -0.0319  0.2233
 5561W        W 9159   3.987   0.900  15.207 -0.2604  0.1061  0.0014
 5562W        W 9160   0.137   8.927   3.579 -0.2294 -0.2822 -0.1917
 5563W        W 9161  12.832  16.062  12.429 -0.1455  0.2397 -0.0960
 5564W        W 9162  14.513  10.303  15.565 -0.3015 -0.0618 -0.2628
 5565W        W 9163   5.716   9.584   2.425 -0.1774  0.0210 -0.0297
 5566W        W 9164  11.413  10.588   4.494 -0.3070 -0.3445  0.0340
 5567W        W 9165   5.312  10.140  10.836 -0.2143 -0.0550  0.0647
 5568W        W 9166  12.349   0.143  13.095 -0.2616  0.0915  0.2473
 5569W        W 9167  15.920  15.540   8.289  0.2586  0.1113 -0.0590
 5570W        W 9168   2.462  12.424   8.371  0.0787 -0.0467 -0.0114
 5571W        W 9169   2.809   9.374   4.369 -0.0363 -0.0797 -0.0819
 5572W        W 9170  15.573   5.499   3.249  0.1145  0.0267  0.1066
 5573W        W 9171  12.753  15.331  11.189 -0.0058  0.0313 -0.2924
 5574W        W 9172   0.002  14.342  16.009 -0.0913  0.0335 -0.0738
 5575W        W 9173   3.768  11.751  14.351 -0.0548 -0.1732 -0.2784
 5576W        W 9174  14.366   4.163   6.639  0.0630  0.0271  0.0121
 5577W        W 9175  11.559   0.695   3.157 -0.0388  0.0331  0.1707
 5578W        W 9176  11.371   1.941  13.951 -0.2237  0.1734  0.0479
 5579W        W 9177   9.337   7.604   5.375 -0.1720 -0.1509  0.3638
 5580W        W 9178   1.670   4.694  13.743  0.3824 -0.0504 -0.0026
 5581W        W 9179   4.919   5.180   0.813 -0.0779 -0.1286  0.3500
 5582W        W 9180   5.825   0.277  16.387  0.0467  0.1713  0.1971
 5583W        W 9181   5.132   8.877  13.255 -0.1215 -0.0195  0.2780
 5584W        W 9182  12.501   2.667   8.846 -0.1068 -0.3257  0.0505
 5585W        W 9183   5.658   6.112   0.450  0.0782 -0.2833  0.1007
 5586W        W 9184   5.051  12.607  15.371 -0.0959  0.0857 -0.1024
 5587W        W 9185  14.742   6.455   7.983 -0.0912 -0.0286 -0.0470
 5588W        W 9186  10.155  15.298   3.229  0.3695  0.2179 -0.1039
 5589W        W 9187   9.818  16.080   0.180  0.2128 -0.2540 -0.2428
 5590W        W 9188   2.257   6.585   8.505  0.0806 -0.1896 -0.2101
 5591W        W 9189   9.503  13.899   3.810 -0.2806  0.2075  0.2615
 5592W        W 9190   7.327  16.037   9.656 -0.3453  0.0822  0.1417
 5593W        W 9191  12.235  12.610  12.739  0.0367 -0.0329  0.1336
 5594W        W 9192   5.484   3.682   1.884 -0.0732  0.1289 -0.0996
 5595W        W 9193   9.780  11.885   3.570  0.3701 -0.0350  0.0120
 5596W        W 9194   9.124   1.284   9.897 -0.2758 -0.1722 -0.0566
 5597W        W 9195  15.638   7.348   2.430 -0.1324 -0.0676 -0.0537
 5598W        W 9196  11.334  14.780  11.369 -0.3498 -0.0885  0.0767
 5599W        W 9197  11.394  11.658   1.410 -0.0252  0.1860  0.0502
 5600W        W 9198  14.043  11.773   3.563 -0.0902  0.0634  0.0231
 5601W        W 9199   3.310  14.014   8.919 -0.1971  0.2167  0.1769
 5602W        W 9200  12.267   5.000   5.502  0.0970 -0.1526  0.0071
 5603W        W 9201  11.906   2.272  14.718 -0.1389  0.3487  0.1251
 5604W        W 9202   3.710  12.709  12.449  0.2735 -0.0412  0.1506
 5605W        W 9203   7.528   1.830   2.488 -0.0447 -0.1833  0.1684
 5606W        W 9204  16.250   9.599   2.593  0.3159  0.2775 -0.0465
 5607W        W 9205   2.047   2.526   1.662 -0.2028 -0.2151 -0.0133
 5608W        W 9206   4.200  13.452   9.712  0.0433  0.2123 -0.0848
 5609W        W 9207   8.740   7.550  15.532 -0.1476 -0.2459 -0.1557
 5610W        W 9208   5.719  10.974   5.133 -0.2243 -0.1443 -0.2035
 5611W        W 9209  13.364  10.593   1.152 -0.1594  0.0471 -0.5859
 5612W        W 9210  15.785   1.361   4.983  0.1379 -0.1037 -0.3420
 5613W        W 9211   0.071  11.202   8.312  0.0515  0.2287 -0.0918
 5614W        W 9212   7.850  15.854   8.184  0.0775 -0.1193 -0.1457
 5615W        W 9213  11.032   5.819   7.502 -0.0660  0.2380  0.0884
 5616W        W 9214   3.756   9.010  11.837  0.2408  0.2756 -0.1038
 5617W        W 9215   9.136  12.513  12.748 -0.0260 -0.1925 -0.2457
 5618W        W 9216  14.323  15.482  11.682 -0.3250 -0.1365  0.3104
 5619W        W 9217   1.070  15.218   1.115 -0.1795  0.1585 -0.1967
 5620W        W 9218   2.145  10.767  10.540 -0.2919 -0.1775  0.5243
 5621W        W 9219   8.572   8.673   9.999 -0.1146  0.0587  0.0154
 5622W        W 9220  13.612  14.639   3.477 -0.1049 -0.0983 -0.0500
 5623W        W 9221  13.145   6.900   0.802  0.1762  0.4161 -0.1138
 5624W        W 9222   4.429   0.059   0.047  0.1804 -0.1092 -0.0047
 5625W        W 9223   4.480   9.204   9.482 -0.2208  0.0096  0.0017
 5626W        W 9224   1.360  10.922  13.342  0.1751  0.3051  0.0679
 5627W        W 9225  12.790   7.395  10.570 -0.0154 -0.0760  0.1987
 5628W        W 9226   3.191  15.002   2.198 -0.0176 -0.1001 -0.1790
 5629W        W 9227   9.563   8.568   3.445  0.5298 -0.0807  0.1417
 5630W        W 9228   6.346   3.487   5.056  0.0794 -0.0401 -0.0434
 5631W        W 9229  15.387  10.254   3.304  0.3282 -0.0370  0.0965
 5632W        W 9230   6.561   0.408   9.570 -0.2509 -0.4720 -0.2098
 5633W        W 9231   2.291  14.731  11.975  0.2113  0.0084 -0.0469
 5634W        W 9232   5.404   5.047   1.638  0.1732  0.0319 -0.0256
 5635W        W 9233   2.803   5.417   9.872 -0.0600  0.0580 -0.0010
 5636W        W 9234  15.916  15.426  16.362  0.1923 -0.1849  0.0648
 5637W        W 9235   4.329   7.491   2.876 -0.2312 -0.1244  0.2485
 5638W        W 9236   5.074   7.877   9.213 -0.2186  0.1192  0.2234
 5639W        W 9237  11.744  13.150  15.404 -0.1366 -0.2953 -0.1006
 5640W        W 9238   8.071  10.695   4.888  0.0603 -0.0852 -0.1665
 5641W        W 9239  11.917  13.520  13.021 -0.1742  0.0610 -0.0657
 5642W        W 9240   2.737   3.733   5.656 -0.1450  0.1036  0.1723
 5643W        W 9241   4.678  16.182   2.386  0.2213 -0.1226  0.0538
 5644W        W 9242  14.720  10.222   6.633  0.3843 -0.2364  0.1576
 5645W        W 9243  10.110   6.165   8.400 -0.0318  0.3937  0.0029
 5646W        W 9244  15.054   8.579  13.816  0.2562 -0.3557 -0.2265
 5647W        W 9245   4.677   6.712   5.351 -0.0469 -0.3018  0.2935
 5648W        W 9246  15.940  11.035   1.441  0.2062  0.2583 -0.1566
 5649W        W 9247  11.689  14.861   4.739 -0.1069 -0.0937 -0.1911
 5650W        W 9248   3.936   9.891   8.770 -0.2008  0.0645  0.0748
 5651W        W 9249   5.827   3.557  12.878 -0.2389  0.3094  0.0424
 5652W        W 9250  10.722  14.816   9.747 -0.4241  0.2611  0.2991
 5653W        W 9251   1.796  16.280   7.626  0.1733 -0.0940  0.0348
 5654W        W 9252  15.132   0.132   0.893  0.0697 -0.0845  0.0740
 5655W        W 9253  13.048   7.043  12.208 -0.3723 -0.1665 -0.2970
 5656W        W 9254  10.751   0.916   4.604  0.1568  0.0945  0.5553
 5657W        W 9255   9.742   1.165  10.851 -0.0335  0.0660 -0.0147
 5658W        W 9256   7.618   2.524  15.650 -0.1136 -0.0604 -0.0312
 5659W        W 9257   6.101   8.398   0.020 -0.1738 -0.3217  0.0412
 5660W        W 9258   5.461  12.779   8.861  0.2195 -0.3447 -0.0597
 5661W        W 9259   6.993  13.286  15.212 -0.0814  0.0872 -0.0676
 5662W        W 9260   0.305  15.808   8.662  0.0738  0.0830 -0.0315
 5663W        W 9261   0.239  11.681  14.252  0.0285 -0.1220 -0.3850
 5664W        W 9262   3.766   1.704   1.054  0.0253 -0.0588 -0.2184
 5665W        W 9263  13.204  11.486  16.014  0.0457  0.2807  0.0271
 5666W        W 9264  12.572   0.183   2.955 -0.0830  0.1550  0.1163
 5667W        W 9265   7.668   5.825   4.424 -0.0134 -0.4292 -0.0278
 5668W        W 9266  12.145  12.297  14.196 -0.2966  0.2318 -0.3022
 5669W        W 9267   7.409   9.746   0.314  0.0898  0.4406  0.0349
 5670W        W 9268  16.263  11.902   3.501 -0.0102 -0.2544  0.1861
 5671W        W 9269   9.456   2.899  16.084 -0.6006  0.0441 -0.1676
 5672W        W 9270   2.559   8.899  10.840  0.0754  0.0974 -0.2513
 5673W        W 9271  13.238   2.477  14.312  0.1637 -0.1236 -0.0335
 5674W        W 9272  13.969  15.668  12.014  0.3697 -0.1295 -0.0935
 5675W        W 9273   8.684   9.959  11.139  0.0685  0.6447 -0.0367
 5676W        W 9274   7.115  13.388  16.086  0.1121 -0.2812  0.2965
 5677W        W 9275   8.478  13.473   8.049 -0.0906 -0.2407 -0.1704
 5678W        W 9276   5.401   9.551   2.033 -0.0290 -0.0377  0.0925
 5679W        W 9277   2.282   9.954   2.479  0.0687 -0.0270 -0.1926
 5680W        W 9278   3.680   8.998  15.513  0.3347 -0.2403 -0.0674
 5681W        W 9279  10.975   7.846  10.736 -0.1882  0.2818  0.1606
 5682W        W 9280   1.212  13.912   3.923 -0.0526 -0.0792 -0.2164
 5683W        W 9281  11.459   5.307   0.940  0.0521  0.4252 -0.1344
 5684W        W 9282   0.577   6.604   0.351 -0.2846  0.0332  0.0395
 5685W        W 9283   4.764  16.105  15.008 -0.2540 -0.0739 -0.2950
 5686W        W 9284   4.056  15.734   6.806  0.0376 -0.3399  0.3906
 5687W        W 9285   9.179   7.993  15.197  0.1107 -0.0030  0.1897
 5688W        W 9286   5.467   6.018   6.236  0.0325 -0.1249 -0.2193
 5689W        W 9287   9.430   0.787   1.603 -0.0326 -0.0698  0.2152
 5690W        W 9288   2.386  10.243  15.734  0.1885 -0.0469 -0.1227
 5691W        W 9289  16.119   4.943   2.288  0.0014 -0.1469  0.0230
 5692W        W 9290  12.339   9.317   2.874  0.0974 -0.1997  0.1227
 5693W        W 9291   3.629   8.632   3.778  0.1094 -0.3281  0.0685
 5694W        W 9292  12.191   6.840   4.694  0.2994  0.2895 -0.2667
 5695W        W 9293  11.960  15.488   7.837  0.1014  0.1453  0.2669
 5696W        W 9294   8.094   4.289  11.612 -0.0574  0.0511 -0.0288
 5697W        W 9295   9.392   8.391  14.351 -0.1485 -0.1201 -0.0206
 5698W        W 9296  11.809  14.881  14.356 -0.0495  0.3023 -0.1428
 5699W        W 9297  13.371  11.068  10.714  0.0361 -0.1314  0.2408
 5700W        W 9298   5.990   5.848   8.126  0.1154 -0.0489 -0.0576
 5701W        W 9299   2.876   8.889   1.905 -0.2820 -0.1159 -0.0467
 5702W        W 9300  12.786  15.668   9.805 -0.1267 -0.2185 -0.2694
 5703W        W 9301  14.906   4.321   7.837 -0.0758  0.2409 -0.2607
 5704W        W 9302   6.147   0.062   7.798 -0.0387  0.1323  0.0206
 5705W        W 9303   9.899  12.542  15.628  0.0881  0.1214 -0.2035
 5706W        W 9304  14.539   6.543  10.593 -0.3323 -0.0706 -0.1870
 5707W        W 9305   5.299   7.637   2.602  0.0078 -0.1904 -0.2061
 5708W        W 9306   8.265   5.114   4.559 -0.0444 -0.3228  0.2467
 5709W        W 9307  15.933   1.526   2.578 -0.1553  0.0783 -0.1705
 5710W        W 9308   0.161   0.259   8.279  0.4017 -0.3415  0.2055
 5711W        W 9309   7.339   9.624   1.684  0.0832  0.0172  0.1860
 5712W        W 9310   9.126   5.861   2.104 -0.1514 -0.2354  0.2275
 5713W        W 9311   3.037   9.185  12.403  0.1388 -0.1662 -0.2471
 5714W        W 9312   6.654   3.117  11.144  0.1290  0.0122 -0.0546
 5715W        W 9313  16.269   3.438   9.296  0.3017 -0.2047  0.1345
 5716W        W 9314   9.848  10.875  16.168  0.0470 -0.0148  0.0144
 5717W        W 9315   2.678  14.842   7.426 -0.1940  0.1076 -0.2099
 5718W        W 9316   5.400   9.480   3.335 -0.1205 -0.2228  0.1346
 5719W        W 9317   3.193  13.289   5.519 -0.1201  0.0943 -0.2814
 5720W        W 9318   9.605   0.908   5.424  0.0702  0.0238 -0.0063
 5721W        W 9319   8.252   2.442  14.004 -0.2786 -0.0686 -0.1118
 5722W        W 9320  14.702   6.862   0.417 -0.1637 -0.2826 -0.1965
 5723W        W 9321   9.425  16.248   2.454 -0.0531  0.1614  0.2421
 5724W        W 9322   1.287   3.810   6.413 -0.1875  0.1892 -0.0477
 5725W        W 9323   3.630   6.938   5.297  0.1073 -0.0508  0.1927
 5726W        W 9324  11.764  15.803   1.241 -0.3814  0.1105 -0.2359
 5727W        W 9325   8.460   8.518   7.794 -0.3695 -0.0407 -0.2926
 5728W        W 9326   7.370  13.186   3.152 -0.0187  0.3180  0.0172
 5729W        W 9327   4.887   9.879   7.611 -0.1023 -0.0624 -0.4021
 5730W        W 9328   4.626  11.436   1.724 -0.0936 -0.0092 -0.2243
 5731W        W 9329  14.451   2.031   5.782 -0.1284  0.2308  0.0980
 5732W        W 9330  11.975  10.466   9.724 -0.1498 -0.0273  0.0143
 5733W        W 9331  10.701  14.535   7.307 -0.0422 -0.0700 -0.1094
 5734W        W 9332  10.854  11.901  14.735  0.1717 -0.0541 -0.0460
 5735W        W 9333   4.324  13.289  12.563  0.1452 -0.1371 -0.0652
 5736W        W 9334  12.233   1.107  11.675  0.0496 -0.1686 -0.0438
 5737W        W 9335  15.780  12.864   2.035  0.0998  0.1542  0.0083
 5738W        W 9336   3.338   5.746   7.303 -0.1197  0.2897 -0.0393
 5739W        W 9337   8.175  15.360   8.798 -0.1050  0.3331  0.0241
 5740W        W 9338   4.310   0.638  10.393 -0.0269 -0.3227  0.0313
 5741W        W 9339  14.490   0.266   9.521  0.1469 -0.2422 -0.2613
 5742W        W 9340  10.155   8.415   2.094 -0.0137  0.0837 -0.3044
 5743W        W 9341   8.902  13.761  10.915  0.2610 -0.0102  0.1773
 5744W        W 9342  15.381  15.870   0.276  0.5332 -0.2364 -0.1476
 5745W        W 9343   1.845  13.226   6.277 -0.3841  0.2529 -0.2104
 5746W        W 9344   5.321   6.920   5.015 -0.2459 -0.1604  0.1882
 5747W        W 9345   2.731   0.357   1.515 -0.2434  0.1926 -0.2435
 5748W        W 9346  10.473  13.765  15.714 -0.0547 -0.0993  0.0658
 5749W        W 9347   1.691  13.095  16.237  0.1515 -0.2719  0.1094
 5750W        W 9348   7.822   1.705   7.343  0.1236  0.2653  0.2257
 5751W        W 9349   6.864  15.016   9.474 -0.1420  0.2492  0.0009
 5752W        W 9350   5.563   4.003   4.001 -0.0493 -0.0346  0.2926
 5753W        W 9351   7.483  16.196  14.603 -0.4309  0.3757  0.4560
 5754W        W 9352  11.371  15.131  13.816 -0.0341  0.2052  0.1636
 5755W        W 9353   7.216   9.397   8.047 -0.0507 -0.3865 -0.0822
 5756W        W 9354   1.731   5.531   4.769  0.0784 -0.1144 -0.1315
 5757W        W 9355  10.681   1.960   3.691 -0.1129 -0.0326  0.0334
 5758W        W 9356   7.302   5.976   7.048 -0.0381  0.0658  0.0828
 5759W        W 9357   8.124  16.020   3.340 -0.0842 -0.0328 -0.0620
 5760W        W 9358  14.324   2.751   8.000 -0.0753 -0.1945  0.0705
 5761W        W 9359  13.720   5.511  15.470  0.0505 -0.2024  0.2400
 5762W        W 9360   4.221   6.345   5.120 -0.1857 -0.1344 -0.2753
 5763W        W 9361   9.172   3.112  10.125 -0.1470  0.2524 -0.0669
 5764W        W 9362   0.598  10.480   5.384 -0.1078  0.0436 -0.1373
 5765W        W 9363   9.280  14.011  15.788 -0.5608 -0.2267  0.0174
 5766W        W 9364  10.309  10.343   8.088 -0.0816 -0.0821  0.1213
 5767W        W 9365   5.609   2.859  15.159  0.1700  0.3438 -0.1105
 5768W        W 9366  15.584   4.334   5.663 -0.1581  0.0941  0.1294
 5769W        W 9367   4.375   8.377  13.803  0.2147 -0.0108 -0.0654
 5770W        W 9368   2.096  10.285  10.708  0.0483 -0.2622  0.1501
 5771W        W 9369   4.158   0.762   6.737 -0.3028  0.1741  0.3948
 5772W        W 9370   8.405  13.239   4.881 -0.4509 -0.1056 -0.1125
 5773W        W 9371  15.667   8.510  15.861  0.1955 -0.2496  0.0272
 5774W        W 9372  14.485  14.128   2.324  0.1330 -0.2736 -0.2142
 5775W        W 9373  15.895   1.354   7.554  0.0468 -0.0314 -0.0013
 5776W        W 9374  12.242   9.744   4.399  0.2111  0.0493 -0.0511
 5777W        W 9375   8.428   1.696  12.292 -0.0152  0.1481  0.1248
 5778W        W 9376   5.246  15.783  14.858  0.1984 -0.0841  0.0517
 5779W        W 9377   6.615  10.273   5.074  0.1205  0.2330  0.0345
 5780W        W 9378   7.191  14.820   8.230 -0.0539 -0.0614  0.0267
 5781W        W 9379   3.856   7.259   0.925  0.2640  0.0286 -0.1045
 5782W        W 9380   0.794  13.088   1.427 -0.1643 -0.0184  0.1399
 5783W        W 9381   7.845   4.886   0.428 -0.1445  0.3059  0.2191
 5784W        W 9382  14.867   2.591   8.454 -0.3404 -0.0379 -0.1839
 5785W        W 9383   8.031  12.515   2.034 -0.2267  0.0285  0.1187
 5786W        W 9384   4.551   6.381  12.924  0.1620 -0.1341  0.1672
 5787W        W 9385   7.129   2.670   4.306 -0.1192 -0.1184 -0.0131
 5788W        W 9386   4.148   5.193  15.305  0.0910 -0.1025  0.2284
 5789W        W 9387   1.347  14.120  16.235 -0.0628 -0.0351 -0.0473
 5790W        W 9388   3.099  10.002  11.047 -0.2980 -0.0287 -0.0162
 5791W        W 9389   4.677  16.008   1.923  0.0622  0.3513 -0.0270
 5792W        W 9390   3.304   5.598  11.641  0.0859  0.2464 -0.1186
 5793W        W 9391   0.100  11.627   5.755 -0.2478 -0.0341  0.2086
 5794W        W 9392   3.787   2.697   9.037  0.0549 -0.3546  0.3642
 5795W        W 9393  13.468   1.225   4.778 -0.0325  0.0499  0.0496
 5796W        W 9394  16.333  11.437   3.212 -0.1623 -0.0507 -0.3258
 5797W        W 9395   0.850   4.091   9.773  0.0650 -0.4374  0.1041
 5798W        W 9396  11.069   6.312  14.058  0.0989 -0.0432 -0.1492
 5799W        W 9397   5.700   7.216  10.959  0.2502 -0.4038  0.0825
 5800W        W 9398  11.166   7.956   8.545  0.0900 -0.1008  0.0503
 5801W        W 9399   7.421   0.557   2.554  0.0751 -0.1588  0.2638
 5802W        W 9400  10.624   5.676  16.304  0.2100  0.2700  0.3022
 5803W        W 9401   7.208  14.979  10.328  0.2466  0.3827  0.2216
 5804W        W 9402   6.844  13.387   2.859  0.1909 -0.0988 -0.0965
 5805W        W 9403   7.722   2.673   9.078 -0.0012  0.0162  0.1735
 5806W        W 9404   5.375  15.447  11.860 -0.2462  0.2181 -0.0187
 5807W        W 9405  10.009   3.733   9.664 -0.0957 -0.2569 -0.0519
 5808W        W 9406   6.645   9.978   4.574 -0.1557  0.2512  0.3908
 5809W        W 9407   5.579   0.218   8.093 -0.1917 -0.0772  0.0226
 5810W        W 9408   9.854  14.667  12.694 -0.3506 -0.1524  0.2703
 5811W        W 9409  10.365  11.024  13.538  0.2622 -0.4140  0.1368
 5812W        W 9410   3.755   9.466   4.100  0.2347  0.0941  0.2398
 5813W        W 9411   4.399   0.221   0.943 -0.1836  0.2100  0.2335
 5814W        W 9412   1.503  12.129  12.330  0.2910  0.0448  0.0388
 5815W        W 9413   4.234  16.380   1.370 -0.5356 -0.1484 -0.4024
 5816W        W 9414  12.828  10.024  13.301 -0.4090  0.0173 -0.0399
 5817W        W 9415   0.914  11.327   5.042 -0.1221  0.1031 -0.0554
 5818W        W 9416   3.594  10.382   8.050  0.4153  0.0150 -0.1141
 5819W        W 9417   8.706  15.435  15.306  0.0977 -0.1701 -0.6414
 5820W        W 9418   8.940   8.275   6.378  0.1105  0.2101 -0.1008
 5821W        W 9419   2.561  13.320  11.719 -0.1919 -0.2412  0.2389
 5822W        W 9420  10.186   0.666  12.534 -0.1880  0.1349  0.2142
 5823W        W 9421   3.926   1.482  11.250 -0.0862  0.2460  0.1485
 5824W        W 9422  15.750   2.121   0.992  0.1332 -0.3106  0.1140
 5825W        W 9423   1.657   3.984  15.498 -0.0197  0.0821 -0.0522
 5826W        W 9424   2.029   9.438   9.519  0.3566  0.1439 -0.1631
 5827W        W 9425  12.441   3.098   3.747  0.2362 -0.0794  0.1740
 5828W        W 9426  11.734  12.218   0.042  0.1042 -0.1323  0.0496
 5829W        W 9427   1.982  11.934  12.641  0.1865 -0.0373 -0.1146
 5830W        W 9428   6.017   4.615   3.685  0.1015 -0.1331 -0.0028
 5831W        W 9429   8.836   2.967   2.039  0.2554  0.2719 -0.1463
 5832W        W 9430   6.080  14.016  15.851 -0.0414  0.1479 -0.0134
 5833W        W 9431  16.272  10.344  16.182  0.1074 -0.1424  0.2298
 5834W        W 9432  13.875   8.081  11.848  0.1415  0.0178  0.0337
 5835W        W 9433  11.232  13.810   0.699 -0.0358 -0.1308 -0.2103
 5836W        W 9434   6.528   4.419  16.157 -0.0654  0.0868 -0.0555
 5837W        W 9435  13.306  13.298   0.956  0.1441  0.1760 -0.3460
 5838W        W 9436  15.855  13.276   9.557 -0.2490 -0.0700 -0.0002
 5839W        W 9437  13.641  12.936  12.639 -0.3199  0.0795  0.1158
 5840W        W 9438  12.854  13.851   1.544  0.2483  0.1408  0.0384
 5841W        W 9439   0.665   7.702  15.355  0.0049 -0.0349 -0.1263
 5842W        W 9440   5.387   2.913   8.893  0.2875 -0.1174  0.0919
 5843W        W 9441   6.798   2.235   2.943 -0.1280  0.1943 -0.0128
 5844W        W 9442  11.615   4.334  10.178  0.0438 -0.1181  0.2792
 5845W        W 9443  14.829   5.801   2.652  0.2364 -0.0245  0.2704
 5846W        W 9444  12.266  15.574   4.967 -0.3574  0.0645  0.0185
 5847W        W 9445   9.165   0.434  16.062  0.0105 -0.1526  0.0261
 5848W        W 9446  14.365  13.728   2.026  0.0643 -0.0470  0.0682
 5849W        W 9447   3.215  13.169   2.619  0.1338  0.2396 -0.2916
 5850W        W 9448   3.723   6.337   2.781 -0.0658  0.1416  0.0064
 5851W        W 9449   8.866   2.099   6.959 -0.0193  0.0247  0.1357
 5852W        W 9450   1.482   0.172   8.591 -0.1298  0.2101  0.0913
 5853W        W 9451   9.014  14.164   6.609 -0.0431 -0.2304  0.1022
 5854W        W 9452   0.180   8.522  15.566  0.1494 -0.0760  0.0103
 5855W        W 9453  12.973   3.448   6.595  0.1684  0.0098 -0.1863
 5856W        W 9454   9.434   6.725   1.839 -0.1352 -0.3443 -0.0032
 5857W        W 9455  10.594   0.472  13.165  0.1085 -0.1499 -0.1758
 5858W        W 9456   0.963   4.742   6.151 -0.0665  0.1026  0.1264
 5859W        W 9457   5.259  11.960  13.305 -0.1224  0.1136  0.0440
 5860W        W 9458   5.901   0.795  12.043  0.0799 -0.0846  0.0419
 5861W        W 9459   0.027   6.586  14.834  0.1060  0.2658  0.2501
 5862W        W 9460   1.405   3.853   3.456  0.0838  0.0406  0.1779
 5863W        W 9461  12.411  12.536   5.095 -0.4370 -0.0729 -0.0890
 5864W        W 9462  15.672  12.443   5.296 -0.2835  0.1152 -0.1099
 5865W        W 9463   8.175  13.023   5.472 -0.0460  0.1479  0.2114
 5866W        W 9464  13.353   6.517  12.373 -0.1441  0.1394  0.0321
 5867W        W 9465   9.316  12.075  16.088  0.0223 -0.0117  0.1892
 5868W        W 9466   3.646  10.240   0.490  0.2027  0.0387 -0.3027
 5869W        W 9467   6.488   0.199  10.063 -0.1321 -0.0149 -0.0737
 5870W        W 9468   1.861   6.384   3.050  0.2457  0.0611 -0.4032
 5871W        W 9469  11.596   1.477   1.201  0.1562  0.1135 -0.1626
 5872W        W 9470   3.034   1.638   2.596  0.3402 -0.4654 -0.0567
 5873W        W 9471   8.932   4.900  11.071  0.1445  0.1472  0.0948
 5874W        W 9472  10.416   1.785  15.567 -0.0035  0.2500 -0.1658
 5875W        W 9473  14.632  13.042  16.390  0.0058  0.0155 -0.2112
 5876W        W 9474  12.545   1.309   9.177  0.2143 -0.0345 -0.0158
 5877W        W 9475  14.812   9.277   5.293 -0.2302 -0.2638  0.0951
 5878W        W 9476   6.669   0.165  13.303  0.3084  0.4708 -0.1736
 5879W        W 9477  13.038   3.385   8.570  0.0241  0.0253 -0.0432
 5880W        W 9478  14.726  11.177  10.144 -0.0218  0.2353  0.1529
 5881W        W 9479   7.300   5.889  15.554  0.1658  0.1702 -0.0342
 5882W        W 9480   0.021   6.262   7.249 -0.1904  0.0621 -0.2256
 5883W        W 9481  12.228   3.393   2.741 -0.0420  0.0210  0.2649
 5884W        W 9482   6.973   6.869  14.333 -0.0143  0.3989 -0.1648
 5885W        W 9483   5.290  15.058   2.747  0.5147  0.2044 -0.2563
 5886W        W 9484   2.684   5.814   0.829  0.1047 -0.2581  0.0407
 5887W        W 9485   2.473   9.960  15.189 -0.0030 -0.1250  0.1966
 5888W        W 9486  11.955  11.412  15.173  0.0018  0.0201  0.1924
 5889W        W 9487   6.658  14.885  11.620 -0.2941 -0.0325 -0.2251
 5890W        W 9488   3.696  12.076   8.967 -0.2219  0.1367 -0.0037
 5891W        W 9489   4.239   5.761   0.626  0.1182 -0.4492 -0.0464
 5892W        W 9490  12.694   2.011   0.043  0.0407 -0.3453  0.3205
 5893W        W 9491   1.668   5.580   3.308 -0.1118 -0.0428  0.0524
 5894W        W 9492   3.992  12.708  13.856 -0.0632 -0.1227  0.0459
 5895W        W 9493   2.921   2.998   8.528  0.1045 -0.0188  0.0383
 5896W        W 9494   4.841   2.448  11.974  0.0327 -0.1376  0.1044
 5897W        W 9495   6.220   4.360  12.717  0.0644 -0.0552  0.0383
 5898W        W 9496  13.253   6.253   0.279 -0.1585  0.0622  0.0502
 5899W        W 9497  13.249  12.757   8.760 -0.1777  0.0836  0.1667
 5900W        W 9498  15.563   8.962   2.760 -0.2835 -0.0006  0.0784
 5901W        W 9499  11.742   0.196   9.874 -0.0055 -0.2966  0.0266
 5902W        W 9500   1.884  14.086  12.556 -0.1414  0.3019  0.0427
 5903W        W 9501   4.852  10.417   7.776  0.0644 -0.2775  0.0087
 5904W        W 9502   6.412  15.278  15.160 -0.1332 -0.1071  0.1796
 5905W        W 9503   8.920   9.443  10.972  0.0879  0.1880  0.0682
 5906W        W 9504   1.120  14.469   2.168 -0.1946 -0.2459  0.0608
 5907W        W 9505  15.711   1.946  12.624  0.3652 -0.0948 -0.1122
 5908W        W 9506   3.895   0.248   8.723 -0.0845  0.3581  0.0750
 5909W        W 9507  12.094   6.318   9.220 -0.1006 -0.2403 -0.0166
 5910W        W 9508  11.758  14.039  13.782  0.0137  0.4961  0.0871
 5911W        W 9509   3.207   5.763   6.776 -0.0846  0.0050  0.1318
 5912W        W 9510   8.480  14.176  12.613 -0.0437 -0.0096  0.1078
 5913W        W 9511   0.996   5.718   6.020  0.1171 -0.1033  0.0184
 5914W        W 9512   0.381  10.852   0.432  0.1196  0.3447 -0.1575
 5915W        W 9513  11.827  16.086   9.364 -0.0954  0.1013 -0.1677
 5916W        W 9514   9.094   5.424  12.450  0.2925  0.1355  0.0767
 5917W        W 9515   1.878   2.281   5.781 -0.1822 -0.2486  0.0668
 5918W        W 9516  15.650   3.606  10.957 -0.1272  0.0852 -0.0357
 5919W        W 9517  14.949   7.995   8.775  0.0692 -0.1859 -0.1089
 5920W        W 9518   7.485  12.204   1.594  0.2464 -0.0794  0.1721
 5921W        W 9519  13.264  13.609  12.785 -0.2207 -0.0223 -0.0331
 5922W        W 9520   8.174  15.457  15.420  0.1368 -0.3594 -0.2510
 5923W        W 9521   5.907   0.575   3.565 -0.2102  0.0748 -0.0505
 5924W        W 9522   3.700   1.784  13.253  0.3063  0.1940  0.2656
 5925W        W 9523   5.959   4.472   2.215 -0.1587 -0.2314  0.0261
 5926W        W 9524  15.933   7.940   8.763  0.1053 -0.0220 -0.2802
 5927W        W 9525   3.715  11.813  15.400  0.1493  0.0629  0.1062
 5928W        W 9526  12.518  12.166   7.202 -0.0064  0.1880 -0.0680
 5929W        W 9527   9.201   8.142  11.787 -0.1808 -0.0392 -0.2084
 5930W        W 9528   7.748   6.376   1.368 -0.0929 -0.0532 -0.0907
 5931W        W 9529   6.236   3.890  10.001  0.0725  0.0910 -0.1305
 5932W        W 9530   2.619   9.330  11.518 -0.2253  0.2770 -0.0220
 5933W        W 9531   9.197   7.733   9.312 -0.3806 -0.1035 -0.0953
 5934W        W 9532   4.505  13.995   5.239 -0.4564 -0.1674 -0.0657
 5935W        W 9533   5.427  15.691   4.481 -0.0838  0.0416  0.0050
 5936W        W 9534   6.164  13.682  10.702  0.0211 -0.3073  0.0578
 5937W        W 9535   3.651   4.327   1.472 -0.3972 -0.1731 -0.1197
 5938W        W 9536   8.463  15.023  15.413 -0.1333  0.0690 -0.0496
 5939W        W 9537  11.962   8.136   2.100  0.1264  0.1875  0.0417
 5940W        W 9538   7.787   0.307  12.690  0.1372  0.2103 -0.0099
 5941W        W 9539   7.398   0.933   5.486  0.0001  0.1552 -0.0288
 5942W        W 9540  16.175  10.026   8.899  0.2206  0.0590  0.1176
 5943W        W 9541  10.946  16.146  11.934  0.1371  0.0518 -0.1150
 5944W        W 9542   1.972   7.932   8.137 -0.0406  0.2682  0.4434
 5945W        W 9543   7.361   5.236   2.293  0.3091  0.0674  0.3293
 5946W        W 9544   9.211   2.535  12.913  0.1654 -0.1254  0.1403
 5947W        W 9545  13.058   5.489   2.595 -0.0511  0.1243 -0.0064
 5948W        W 9546   5.860   9.455   1.942 -0.2313  0.1732  0.0877
 5949W        W 9547   9.768  13.602   2.672  0.0825  0.0746 -0.0031
 5950W        W 9548   0.538  11.451   8.189 -0.1920 -0.0931  0.0161
 5951W        W 9549  12.605   6.926   0.961 -0.1999  0.0740 -0.2307
 5952W        W 9550  11.625  12.096   1.052  0.0598  0.1451 -0.1124
 5953W        W 9551   2.966   2.113  15.417  0.1161  0.1330 -0.0084
 5954W        W 9552   6.981  16.144  11.744  0.0758 -0.1554 -0.2533
 5955W        W 9553  13.276  16.326   9.935  0.2216  0.1610  0.1588
 5956W        W 9554  14.122   8.904  13.667  0.1768 -0.2230  0.0404
 5957W        W 9555   6.324  10.663  13.134  0.1037 -0.0370 -0.0757
 5958W        W 9556   7.461   0.688  12.794 -0.0132  0.2857 -0.0245
 5959W        W 9557  15.816   6.199   9.910 -0.2842  0.2434 -0.0139
 5960W        W 9558  12.497   4.595   8.715  0.0394  0.0459  0.2056
 5961W        W 9559   3.757   8.048   5.793 -0.0811 -0.1107  0.1145
 5962W        W 9560   5.526   2.374  14.983  0.0871 -0.0015  0.0040
 5963W        W 9561  12.239   5.910   2.486  0.0191 -0.3259  0.0654
 5964W        W 9562   8.341  14.129   5.409 -0.2795  0.0648 -0.0833
 5965W        W 9563   6.995   0.117   0.989  0.0937  0.3824  0.1005
 5966W        W 9564   1.667   1.911  11.215  0.1685  0.0015 -0.1013
 5967W        W 9565   6.525   0.293  12.789 -0.0203  0.1449 -0.1887
 5968W        W 9566   2.466   3.154   8.197 -0.0171  0.1404  0.0513
 5969W        W 9567  14.398   4.213   2.953  0.0469 -0.2494 -0.0349
 5970W        W 9568  13.569  11.473   2.805 -0.0527 -0.0923  0.0957
 5971W        W 9569   1.058  13.820  15.079 -0.0149  0.0090  0.2484
 5972W        W 9570   2.649   6.691   1.612 -0.1502  0.0665 -0.1264
 5973W        W 9571   0.656  10.019   5.580  0.1198  0.1547 -0.4159
 5974W        W 9572  16.105  15.390  15.026 -0.0791 -0.1422  0.1317
 5975W        W 9573  13.433   2.469   6.619 -0.0265  0.0867 -0.0938
 5976W        W 9574   0.037   7.137  12.806  0.0137 -0.0875  0.0383
 5977W        W 9575  10.280   1.437   8.196  0.0157 -0.1620 -0.1712
 5978W        W 9576  14.000   6.005  15.528 -0.1049  0.2497 -0.3670
 5979W        W 9577   1.753   2.933  10.038 -0.0753  0.1354  0.2327
 5980W        W 9578  12.357   3.450   4.295 -0.1999  0.1377  0.4417
 5981W        W 9579   6.854  16.330   2.714 -0.1664 -0.5311  0.1450
 5982W        W 9580   5.047   0.244  13.748  0.0509 -0.2604 -0.1210
 5983W        W 9581  15.662  15.089   2.501 -0.0012 -0.2559 -0.1929
 5984W        W 9582   6.826   4.535   0.995 -0.1082 -0.1884 -0.1392
 5985W        W 9583   4.161   4.127  15.184  0.1253  0.1580  0.0743
 5986W        W 9584   9.936   7.167  13.249  0.0109  0.0046  0.2192
 5987W        W 9585   8.093   0.497  10.648  0.2658  0.0704  0.3073
 5988W        W 9586  16.328  12.487   9.575 -0.2075  0.0565  0.0633
 5989W        W 9587   5.746   5.598  12.816  0.0011  0.1215 -0.4010
 5990W        W 9588   1.050  12.597   3.218  0.3077 -0.0091 -0.0733
 5991W        W 9589  12.861   5.027   2.716 -0.1185  0.3979  0.1081
 5992W        W 9590   7.351   8.981  16.016 -0.2554  0.2949 -0.0401
 5993W        W 9591   5.719   3.853   1.486 -0.1567  0.1988  0.0438
 5994W        W 9592  12.309   6.940   0.581  0.1492 -0.0465 -0.0268
 5995W        W 9593   2.433   9.837  11.872  0.3151 -0.1789  0.1533
 5996W        W 9594  13.914   9.684   4.343  0.1934  0.2372  0.0647
 5997W        W 9595   6.990   8.246   3.549  0.1013 -0.2393 -0.3130
 5998W        W 9596  15.808   0.895   9.691  0.2175 -0.2547  0.0975
 5999W        W 9597   5.519  15.958   9.930 -0.0351  0.1315  0.0179
 6000W        W 9598   8.772   1.637  13.556  0.0084 -0.1006  0.2517
 6001W        W 9599  13.611   9.400  14.412 -0.3664  0.0303  0.1085
 6002W        W 9600   6.833   8.185   5.548 -0.0110  0.1138  0.0705
 6003W        W 9601   6.078  16.085  11.937  0.3296  0.1775 -0.0127
 6004W        W 9602   5.721  11.301   2.332 -0.1545  0.1043  0.1397
 6005W        W 9603   7.132  15.295  12.580 -0.2824  0.1190  0.2128
 6006W        W 9604  14.371   5.311   3.821  0.1100 -0.1681 -0.2356
 6007W        W 9605   8.849   2.181   0.056  0.0411  0.0427  0.0201
 6008W        W 9606   7.717  10.605   1.393 -0.3409 -0.1019  0.2329
 6009W        W 9607  12.735  13.112   3.858  0.0082 -0.1323 -0.2467
 6010W        W 9608   1.427   8.559   8.450 -0.1260  0.1327 -0.0649
 6011W        W 9609   9.740   7.691   1.268  0.2984 -0.0092 -0.2376
 6012W        W 9610  13.887   6.373   8.558  0.2039  0.2737 -0.0236
 6013W        W 9611   2.875  14.269   5.528 -0.2879  0.1669 -0.0034
 6014W        W 9612   1.086   3.029   0.465  0.3150 -0.2023 -0.0926
 6015W        W 9613  12.373   8.815   2.670  0.0021 -0.0036  0.3468
 6016W        W 9614   0.492  10.794  14.145  0.0555 -0.1517 -0.1965
 6017W        W 9615   9.584   9.841   8.205 -0.0599 -0.2882  0.0822
 6018W        W 9616   1.920   0.933   4.203 -0.0054  0.4228  0.1285
 6019W        W 9617   4.607   7.784  12.897 -0.0283  0.1875  0.3852
 6020W        W 9618  11.825   5.307   6.337  0.1828  0.1230 -0.0359
 6021W        W 9619   4.493   3.099  14.009  0.1153 -0.2513  0.3435
 6022W        W 9620   1.157  12.104   9.081  0.0918 -0.0117 -0.1164
 6023W        W 9621  15.106   6.156   8.706  0.1862  0.0399 -0.0915
 6024W        W 9622   8.688  11.989  15.410  0.1214  0.2259 -0.0191
 6025W        W 9623   9.633  10.723   3.740  0.1206 -0.1848  0.3504
 6026W        W 9624   0.400   8.039   9.795 -0.0609  0.1687 -0.0206
 6027W        W 9625   8.857   3.440  13.042 -0.1333 -0.2644 -0.1587
 6028W        W 9626   6.057   3.627   8.016  0.1517 -0.3606  0.1622
 6029W        W 9627   1.942   7.646   9.873  0.0745  0.2462 -0.3128
 6030W        W 9628   1.018  12.892   2.279 -0.0888  0.0126  0.0057
 6031W        W 9629   5.453   4.896   8.124 -0.3332 -0.1008 -0.0350
 6032W        W 9630  10.099  10.358  13.096  0.1588  0.1899 -0.2102
 6033W        W 9631   3.331   9.896  11.980  0.2420 -0.2865  0.1046
 6034W        W 9632   7.122   8.667   6.953  0.0828  0.0258 -0.0979
 6035W        W 9633   8.489   9.616  11.473 -0.1641 -0.3277  0.0040
 6036W        W 9634   9.928   7.947   7.520  0.0686  0.1147 -0.1103
 6037W        W 9635  15.724   0.354   6.468  0.1425  0.0290 -0.0001
 6038W        W 9636   9.801  15.172   9.255 -0.0170  0.1795  0.2601
 6039W        W 9637  13.053   4.212   1.911 -0.1868 -0.2251  0.1320
 6040W        W 9638   2.685   3.996  11.748  0.2055  0.0539  0.0449
 6041W        W 9639  14.751  10.187  14.512 -0.2099  0.0939 -0.0047
 6042W        W 9640  11.640   2.881   8.756  0.1349  0.0982 -0.0151
 6043W        W 9641   2.883   0.374   1.082 -0.2507 -0.4141  0.5702
 6044W        W 9642  14.620  11.468  12.851  0.0275  0.3476  0.2504
 6045W        W 9643   6.228   0.326   1.411  0.2687  0.1150  0.0108
 6046W        W 9644   8.055   0.252   5.515  0.2013  0.0069  0.1807
 6047W        W 9645  12.585  13.494   0.575  0.2218 -0.2051 -0.2011
 6048W        W 9646   5.468  16.272   3.268 -0.3531 -0.2630 -0.0360
 6049W        W 9647   8.140  15.958   4.665  0.0565 -0.1054 -0.2541
 6050W        W 9648  15.806  15.819  15.028  0.0968  0.0980  0.0337
 6051W        W 9649   4.438   2.357   9.902 -0.0811  0.3644 -0.3649
 6052W        W 9650   6.274   9.789  12.416  0.2086 -0.0706  0.2332
 6053W        W 9651   4.598   1.270   4.079  0.0911 -0.0830 -0.0560
 6054W        W 9652  14.150  14.349  15.359  0.2179  0.0960 -0.1005
 6055W        W 9653   8.906   8.178   5.765  0.0961  0.0248  0.1548
 6056W        W 9654   4.229   3.794  15.560 -0.0239 -0.1439 -0.0801
 6057W        W 9655  15.834   7.684   0.748 -0.0072  0.1885  0.0934
 6058W        W 9656   6.222  15.465  10.847 -0.3304 -0.0174  0.2378
 6059W        W 9657  13.111   4.362  10.670 -0.1635 -0.3271 -0.1060
 6060W        W 9658   0.517   5.686   6.022  0.3852  0.1514  0.0792
 6061W        W 9659  12.993   8.806   6.267 -0.1291  0.0728 -0.0856
 6062W        W 9660  13.953   1.845   5.584  0.2278  0.0007  0.3531
 6063W        W 9661   2.952  11.397   7.385 -0.0064 -0.0497  0.0255
 6064W        W 9662  14.273  10.231  11.409 -0.1021 -0.1711 -0.0252
 6065W        W 9663  10.300   9.169   4.754 -0.2536  0.1018  0.0906
 6066W        W 9664  12.492  12.525   7.584  0.1391 -0.3140  0.0634
 6067W        W 9665   0.679  14.948   8.127 -0.0632 -0.2425 -0.0246
 6068W        W 9666   3.275   2.662   9.307 -0.0484 -0.1873  0.2989
 6069W        W 9667   9.955   0.751   1.558  0.1458  0.1165  0.1716
 6070W        W 9668  11.032  14.626   5.854 -0.2872 -0.2644  0.0983
 6071W        W 9669   3.798   2.311   2.982 -0.1022 -0.2289  0.1060
 6072W        W 9670   0.441   1.453   0.557  0.1893 -0.0067  0.0761
 6073W        W 9671  12.719   8.685   4.548 -0.2422 -0.0631  0.1858
 6074W        W 9672   8.802  11.005   8.271  0.2024  0.2336  0.0804
 6075W        W 9673   4.485  10.944   5.569 -0.1625 -0.0531 -0.2267
 6076W        W 9674   8.409   1.177  10.527 -0.1537  0.5749  0.0732
 6077W        W 9675  14.763  10.822   1.399 -0.1804  0.0563 -0.0062
 6078W        W 9676   7.710  13.468  10.407  0.1850 -0.0575  0.1208
 6079W        W 9677  12.115   0.353   5.500 -0.0426 -0.0313 -0.1113
 6080W        W 9678  12.221   9.058   9.910  0.3483 -0.1574 -0.1778
 6081W        W 9679   9.226   1.722  11.829  0.1092 -0.0087 -0.1750
 6082W        W 9680   2.789   8.278   3.671  0.0683  0.3028 -0.1689
 6083W        W 9681   0.387  12.707   3.921  0.1072  0.2481  0.1032
 6084W        W 9682   3.020   9.382  10.218  0.3368 -0.0580  0.1776
 6085W        W 9683  11.829  12.387  15.653 -0.0155 -0.1243  0.0788
 6086W        W 9684  13.867   4.301  14.074  0.0338  0.0953 -0.3235
 6087W        W 9685   6.315   7.669   2.880 -0.2292 -0.0861  0.2056
 6088W        W 9686   8.118  12.856   4.957  0.0891  0.1994  0.0822
 6089W        W 9687   0.874   2.572   3.175  0.1776 -0.1287  0.0193
 6090W        W 9688   2.472  15.861   3.278  0.2619  0.0664  0.1657
 6091W        W 9689  13.017  11.301  12.051  0.2227 -0.3135  0.0944
 6092W        W 9690  10.429   8.695  15.862  0.0124 -0.0680  0.0378
 6093W        W 9691   8.901   2.541   4.629 -0.1965 -0.0458  0.3760
 6094W        W 9692   4.152   3.078   7.088  0.0811  0.1189 -0.1401
 6095W        W 9693  13.891   8.295   5.059 -0.0713 -0.1092 -0.2081
 6096W        W 9694   6.320   4.484  14.704 -0.0790  0.2125  0.3208
 6097W        W 9695  13.112   1.652   7.247  0.0762 -0.1023  0.3781
 6098W        W 9696  10.857  16.249   2.310  0.2242  0.0218 -0.1575
 6099W        W 9697   7.473  11.627  10.540  0.0679  0.0120  0.3444
 6100W        W 9698   5.895   1.857   7.647 -0.3672 -0.1777  0.0502
 6101W        W 9699   9.645   6.246   8.556  0.2291  0.0808 -0.0116
 6102W        W 9700  15.908  10.901   6.425 -0.1503 -0.0167 -0.4216
 6103W        W 9701  10.036   9.634   4.916 -0.2867  0.2921  0.2237
 6104W        W 9702  14.026   3.720   8.246  0.3159  0.0439  0.0220
 6105W        W 9703   9.217  15.406   3.396 -0.6009 -0.0530  0.1514
 6106W        W 9704   8.008   8.952   8.541  0.0693  0.2705  0.4395
 6107W        W 9705  13.949   4.507   1.936  0.0756  0.0828 -0.1137
 6108W        W 9706   2.881   4.294   1.214  0.1295  0.1192 -0.1518
 6109W        W 9707  15.627   7.058   5.926 -0.3092  0.0487  0.1793
 6110W        W 9708   0.608   3.264   5.536 -0.0693  0.4158 -0.0025
 6111W        W 9709  13.299   2.605  14.790  0.5212  0.0471 -0.1066
 6112W        W 9710   5.908   9.070   2.392  0.2661 -0.2332  0.2773
 6113W        W 9711   8.778  11.034  12.914  0.1614 -0.0552  0.1034
 6114W        W 9712  11.817   6.119   1.876 -0.2503 -0.4110  0.0547
 6115W        W 9713  13.434   8.041   7.872  0.1338 -0.0975  0.0146
 6116W        W 9714  11.155  10.359   7.414 -0.1536 -0.1651 -0.1312
 6117W        W 9715   4.572  14.588   8.971  0.0762  0.1366 -0.1618
 6118W        W 9716  11.906   0.117   9.196  0.2060 -0.1050 -0.4295
 6119W        W 9717  11.723  13.813  15.303  0.0845 -0.1970 -0.0860
 6120W        W 9718  15.356   3.696  14.443  0.3219  0.1444 -0.1156
 6121W        W 9719   0.701   4.474   7.574 -0.0373  0.1330 -0.0156
 6122W        W 9720  16.275   8.039   0.643  0.0740 -0.0650 -0.1694
 6123W        W 9721  12.563  15.093  13.875 -0.2435 -0.1573  0.2089
 6124W        W 9722  16.307   1.391   3.851 -0.0271  0.1615  0.1342
 6125W        W 9723  10.122  10.059  15.960  0.1559 -0.2018  0.2860
 6126W        W 9724   0.888  15.561   9.998 -0.1230  0.1798  0.0481
 6127W        W 9725   6.487  10.435  13.957  0.0973  0.3573  0.0706
 6128W        W 9726   7.018   4.162   9.419 -0.2031  0.1699 -0.0593
 6129W        W 9727   3.245  14.632   1.507  0.2730  0.0550 -0.4296
 6130W        W 9728   7.525   7.569   3.651 -0.0526 -0.3667 -0.2790
 6131W        W 9729  12.062   9.786   7.697 -0.2241 -0.0155 -0.0005
 6132W        W 9730   9.127   2.071   4.617 -0.0197 -0.3716 -0.1818
 6133W        W 9731  10.440   2.272   4.225 -0.1869  0.0392  0.0302
 6134W        W 9732  10.902   0.081  13.434  0.0655  0.1562  0.1531
 6135W        W 9733   4.120   6.570   6.097  0.0356 -0.0567 -0.0435
 6136W        W 9734  15.395   2.797   4.053  0.0369 -0.3997 -0.1673
 6137W        W 9735   2.582   6.728   0.449  0.1927  0.2602 -0.3220
 6138W        W 9736   0.839   0.497  14.386  0.0250  0.0898 -0.0640
 6139W        W 9737   3.109   8.547  15.500  0.2556 -0.1321 -0.1538
 6140W        W 9738   8.891   9.252  15.143 -0.1075 -0.3672 -0.1913
 6141W        W 9739   1.254   1.546   4.347  0.1092 -0.0672 -0.0634
 6142W        W 9740   1.759   7.529  15.359  0.0532 -0.0297 -0.1256
 6143W        W 9741  13.688  10.229  14.476  0.2181  0.0112 -0.0697
 6144W        W 9742   0.703  14.702   3.672 -0.4414  0.3820 -0.1184
 6145W        W 9743   9.151  14.680   6.706 -0.1289  0.0529  0.1293
 6146W        W 9744  10.599   7.573  11.771  0.3963 -0.0861  0.0602
 6147W        W 9745   6.014   7.399   9.526 -0.4015  0.1491  0.1285
 6148W        W 9746  14.777   7.584  11.552  0.2593  0.1069 -0.1230
 6149W        W 9747   7.900  12.091   4.542  0.2339 -0.0857 -0.0348
 6150W        W 9748   3.023   6.429  11.545 -0.0176 -0.0127 -0.0685
 6151W        W 9749   9.473  14.323   9.321  0.2530 -0.2041  0.0523
 6152W        W 9750   1.320   7.323   2.148 -0.0869  0.1251 -0.3226
 6153W        W 9751   4.467   3.736   5.351 -0.1106 -0.2077  0.0928
 6154W        W 9752   3.175   5.513   2.393  0.1342  0.3319  0.0645
 6155W        W 9753  12.897   4.400   8.540  0.1718  0.1887 -0.2334
 6156W        W 9754   4.251  12.402   8.784 -0.1545  0.1222 -0.1712
 6157W        W 9755   8.073   9.676   0.927  0.0313  0.0993  0.1698
 6158W        W 9756   1.650  15.923   4.219 -0.1217  0.0646 -0.1991
 6159W        W 9757   6.021  13.598   4.817 -0.3932 -0.0247  0.5025
 6160W        W 9758  12.805  12.604   6.544 -0.1763  0.3027  0.1127
 6161W        W 9759   7.158  14.608  11.545 -0.0351  0.1102 -0.1014
 6162W        W 9760  14.530  12.939  14.133 -0.4033  0.0482 -0.0801
 6163W        W 9761   8.095  12.078  13.189 -0.0398 -0.0526  0.1182
 6164W        W 9762  14.210   7.106  11.221 -0.1671  0.1101 -0.3309
 6165W        W 9763   8.179   4.765   8.105 -0.1993 -0.0161  0.0851
 6166W        W 9764   5.310   5.596  15.999 -0.0612 -0.0703 -0.1884
 6167W        W 9765   7.940  14.153  10.780 -0.0040  0.1432 -0.2162
 6168W        W 9766  13.058   3.971  13.054 -0.3058 -0.1132 -0.0986
 6169W        W 9767  10.508   3.019   6.722 -0.2781 -0.0050 -0.1696
 6170W        W 9768   3.922   1.341   5.184  0.0328  0.0588  0.1015
 6171W        W 9769  15.322   7.415  11.803  0.3197  0.0780 -0.1019
 6172W        W 9770   0.649   4.059   4.491  0.0381  0.0090  0.1065
 6173W        W 9771   3.425  14.255  13.400 -0.0260  0.1887 -0.2170
 6174W        W 9772   7.607   3.980  16.380 -0.2777 -0.1934 -0.0305
 6175W        W 9773  14.101   5.853  12.391 -0.3085 -0.1989  0.1366
 6176W        W 9774   3.425   0.578   7.384 -0.0541  0.0776  0.0075
 6177W        W 9775   0.259   2.866   2.411  0.0973  0.3131 -0.1043
 6178W        W 9776   9.938   3.026   2.460 -0.1790  0.1525 -0.5654
 6179W        W 9777  13.515   8.223   9.741 -0.0482 -0.5129  0.1011
 6180W        W 9778  14.395  12.605  13.056  0.2508 -0.0514  0.1089
 6181W        W 9779   3.811  12.114   2.501 -0.0650  0.1044  0.0483
 6182W        W 9780   6.805   7.890   9.415  0.1914 -0.0046  0.2764
 6183W        W 9781   6.423  14.205   2.707  0.0431 -0.1096  0.3184
 6184W        W 9782  16.118  12.911   4.474 -0.1670  0.1523  0.1518
 6185W        W 9783  11.569   1.559  11.116 -0.0013  0.2787  0.3857
 6186W        W 9784  11.699  13.627   2.931  0.0208  0.0474  0.0164
 6187W        W 9785   0.137   6.095   8.513 -0.1893  0.3436 -0.1165
 6188W        W 9786   4.873  11.254   4.972 -0.0375 -0.2440 -0.1521
 6189W        W 9787   4.049   6.187  13.608  0.0924 -0.2238  0.0001
 6190W        W 9788   9.798   3.183  14.076  0.1598 -0.2496 -0.1199
 6191W        W 9789  14.156   6.630  15.449 -0.0422 -0.1816  0.1634
 6192W        W 9790   3.501   1.338   9.328 -0.1169 -0.0325  0.0140
 6193W        W 9791   8.265  11.480   5.256  0.1485  0.0647  0.0505
 6194W        W 9792  15.123   4.680   8.063 -0.1333 -0.0131 -0.0888
 6195W        W 9793   7.317   9.227   2.628 -0.1410  0.0615 -0.0232
 6196W        W 9794  10.817   0.942   1.161 -0.0737  0.1566 -0.1541
 6197W        W 9795  13.443   2.989  12.362  0.2821 -0.2608  0.0243
 6198W        W 9796   8.621  10.635  10.696 -0.3481  0.2090 -0.2365
 6199W        W 9797   7.124   6.240   9.040  0.0372 -0.2254  0.0328
 6200W        W 9798   1.407  11.736   9.322  0.2712  0.0950  0.1522
 6201W        W 9799   7.811  10.310   5.225  0.0231  0.0106  0.0849
 6202W        W 9800  11.854   0.869   8.415 -0.2312  0.1202 -0.1303
 6203W        W 9801   1.791   0.582  14.670  0.0416  0.0214  0.3406
 6204W        W 9802   0.570   3.984   4.979 -0.2273 -0.3811  0.0319
 6205W        W 9803   0.690   3.222  15.436 -0.1980 -0.1645  0.0682
 6206W        W 9804   3.682   6.616  12.736  0.1232  0.0785  0.3253
 6207W        W 9805  14.803  14.779  13.703 -0.2543  0.0488  0.2844
 6208W        W 9806  13.040  14.787   9.717 -0.0296  0.0202 -0.0492
 6209W        W 9807  12.362  13.278  14.150 -0.0664  0.2032  0.0798
 6210W        W 9808   4.340   6.847   3.633  0.1169  0.1703  0.1142
 6211W        W 9809   9.518  13.594  15.902 -0.0421 -0.1142 -0.0347
 6212W        W 9810  12.026  14.960  10.742 -0.0379  0.3379  0.2013
 6213W        W 9811   0.147   9.869   3.754 -0.0624 -0.0883 -0.0366
 6214W        W 9812   3.271   6.215  12.801  0.0357 -0.0386  0.1526
 6215W        W 9813  14.938   2.426   9.425 -0.3724 -0.3050  0.0100
 6216W        W 9814  15.352   3.035  13.429 -0.0349  0.0884  0.1945
 6217W        W 9815  13.818   2.757   2.419 -0.1489 -0.0601  0.3920
 6218W        W 9816  12.831   2.044  12.694 -0.0558  0.2179  0.1637
 6219W        W 9817  11.754  10.744   0.904  0.0729 -0.3900 -0.1795
 6220W        W 9818   9.628   5.825   8.275 -0.0826 -0.2678  0.0015
 6221W        W 9819   4.934   8.879  14.450 -0.1796 -0.0466 -0.2850
 6222W        W 9820  14.512   5.148  12.948 -0.0410  0.0142 -0.2034
 6223W        W 9821   9.345  16.200  13.403  0.2484 -0.0315  0.1438
 6224W        W 9822  14.920   7.416  14.837 -0.0352  0.1865  0.2666
 6225W        W 9823   3.026   5.637  13.174  0.0056  0.1598 -0.1040
 6226W        W 9824   0.905  16.273   7.783  0.1046  0.2122 -0.0028
 6227W        W 9825   5.713  15.387   0.936  0.3500  0.1151 -0.0833
 6228W        W 9826   0.180   2.952   8.031  0.1719  0.0525 -0.2482
 6229W        W 9827   7.264   1.440  14.142  0.0305  0.0700  0.0050
 6230W        W 9828   3.664   1.118  16.095  0.0931  0.2131 -0.0391
 6231W        W 9829  11.617  11.937   7.415 -0.0434 -0.1482  0.3715
 6232W        W 9830   3.515   5.217   7.090  0.0283 -0.0327  0.1392
 6233W        W 9831  12.986  13.425   4.257 -0.1650 -0.1083  0.1270
 6234W        W 9832   7.387   3.176  13.726 -0.2887 -0.1991 -0.2033
 6235W        W 9833   0.639   8.397  10.136  0.1206  0.0945  0.1014
 6236W        W 9834   1.885   8.589   5.874 -0.0324 -0.1552 -0.1083
 6237W        W 9835   8.011  13.450  14.325 -0.0925 -0.5362  0.0792
 6238W        W 9836   7.851   2.247  13.715  0.1797 -0.1188 -0.0256
 6239W        W 9837   6.764   4.624  14.521  0.1830 -0.4261  0.1464
 6240W        W 9838  14.141   1.426  12.892  0.2528  0.1082  0.0447
 6241W        W 9839   1.380   1.849   3.438  0.0945  0.3479 -0.1738
 6242W        W 9840   5.819   0.666   0.332 -0.2501  0.0830  0.1116
 6243W        W 9841   6.630  11.657   1.573 -0.2782 -0.2348  0.2491
 6244W        W 9842   2.258   1.209  15.051  0.2782 -0.2680 -0.0921
 6245W        W 9843   2.974  12.388   5.834 -0.0479  0.3320 -0.2101
 6246W        W 9844  16.303   2.828  11.815  0.0194  0.1245  0.0792
 6247W        W 9845   9.689   5.857   6.733  0.1403  0.0617 -0.0357
 6248W        W 9846   7.506  11.487   2.493 -0.0461 -0.2536  0.1141
 6249W        W 9847  15.234   9.312   6.938 -0.1952  0.0204 -0.3283
 6250W        W 9848   0.963  11.392  15.571  0.0265 -0.2477 -0.0025
 6251W        W 9849   2.529  11.688   2.925  0.1507  0.1997 -0.0167
 6252W        W 9850   1.107  15.915  13.089 -0.0802  0.2070 -0.1236
 6253W        W 9851  11.631  12.789   4.011  0.2206  0.1375  0.1158
 6254W        W 9852   9.188   8.081  11.296  0.1196 -0.1440  0.1726
 6255W        W 9853   0.910   9.617   8.571 -0.0328  0.0540  0.0274
 6256W        W 9854  11.358  11.296   3.975  0.1274 -0.0152  0.2004
 6257W        W 9855   0.601   6.622  16.010  0.1130  0.0398 -0.0256
 6258W        W 9856   5.021   2.067   7.420 -0.1375 -0.2788 -0.1812
 6259W        W 9857   2.161  11.710   2.543 -0.1474 -0.3209 -0.1203
 6260W        W 9858   7.517   7.369  10.609 -0.1983 -0.1296  0.0127
 6261W        W 9859   2.970  14.780  10.883 -0.0112  0.0554  0.2991
 6262W        W 9860   1.284  15.207  13.825  0.3556 -0.4036 -0.2925
 6263W        W 9861   4.879  12.144   5.003 -0.0657 -0.2350  0.1674
 6264W        W 9862   4.745   9.135  13.121 -0.1310 -0.0832  0.5184
 6265W        W 9863  14.989   7.240  10.879 -0.0326  0.3523  0.3266
 6266W        W 9864   2.509  13.500   0.900  0.0648  0.0111 -0.4320
 6267W        W 9865  13.509   7.178   5.891  0.1263  0.0547 -0.0310
 6268W        W 9866  15.394  15.690   1.333 -0.1183  0.1490 -0.3658
 6269W        W 9867  15.472  12.777  10.030  0.2985  0.0187  0.1196
 6270W        W 9868  14.098   1.481   3.800  0.1489 -0.2047  0.2605
 6271W        W 9869   9.512  16.375  10.020 -0.1685  0.3072 -0.2657
 6272W        W 9870  12.367   3.537   9.832 -0.0455 -0.1072  0.0909
 6273W        W 9871  14.027  12.867  14.795 -0.1267 -0.1069 -0.0883
 6274W        W 9872  15.908  13.850   4.160 -0.1470  0.2642 -0.1594
 6275W        W 9873   9.584   4.308   0.959  0.0306 -0.3104 -0.4946
 6276W        W 9874  10.453   1.101   0.314 -0.0019 -0.1041 -0.2036
 6277W        W 9875  11.046   1.097   2.164 -0.1574  0.0557  0.0914
 6278W        W 9876   3.757  12.873  11.933 -0.2588  0.1104 -0.2756
 6279W        W 9877   6.981  16.042   5.381  0.0293 -0.1499  0.0942
 6280W        W 9878  12.608  11.204   0.240  0.1413 -0.0597 -0.2174
 6281W        W 9879   8.177   8.069  16.381 -0.0592  0.1367 -0.0891
 6282W        W 9880   0.984   6.174   3.409 -0.2944  0.0923 -0.1737
 6283W        W 9881   5.920   9.847  13.720  0.0427 -0.3304 -0.2477
 6284W        W 9882   4.286   4.367  12.784 -0.2083  0.0337  0.0771
 6285W        W 9883   3.256   9.160   6.192 -0.1266 -0.0591 -0.2148
 6286W        W 9884   9.477  16.059   0.772 -0.0839 -0.2722  0.2795
 6287W        W 9885  11.184   9.186  16.161  0.0328  0.2082 -0.1328
 6288W        W 9886   2.729  10.742   7.885 -0.0765  0.1821 -0.0879
 6289W        W 9887  11.985   0.927   7.405  0.0971 -0.2471 -0.3297
 6290W        W 9888   4.010  12.886   5.036 -0.0149 -0.2798  0.1785
 6291W        W 9889  13.618   0.865  12.397  0.1756 -0.1004 -0.0883
 6292W        W 9890   1.581   7.559   7.353  0.0422 -0.3787  0.0032
 6293W        W 9891   3.361   9.718  12.952 -0.1053  0.1623  0.1028
 6294W        W 9892  12.656  16.328   3.612 -0.0707  0.1719  0.0745
 6295W        W 9893   4.524   6.228  13.466 -0.2808 -0.0559 -0.0222
 6296W        W 9894   2.082  10.270  14.083  0.2969  0.1954 -0.1369
 6297W        W 9895   7.113  11.455   4.583 -0.0209 -0.0576 -0.0248
 6298W        W 9896   9.430   4.403  10.460 -0.0016  0.0315  0.2902
 6299W        W 9897  15.925  13.468  12.461  0.0928  0.0159 -0.0208
 6300W        W 9898  10.261   2.369   3.190 -0.2686  0.0938 -0.2477
 6301W        W 9899  13.913  11.461   8.241 -0.2493 -0.3366 -0.0092
 6302W        W 9900   1.276  14.534   1.675 -0.0449 -0.0809 -0.0086
 6303W        W 9901  13.141   3.241  14.867  0.0920 -0.1563  0.0486
 6304W        W 9902  10.932   1.253  12.863 -0.0410  0.0483 -0.0360
 6305W        W 9903   1.712   8.116   7.763 -0.4057  0.0411 -0.0592
 6306W        W 9904   6.532  16.046   1.974  0.1448  0.1246 -0.1510
 6307W        W 9905   8.435   3.672   3.674 -0.2279  0.1174  0.0506
 6308W        W 9906  13.552   9.021  14.002  0.1446  0.4272  0.0368
 6309W        W 9907   7.923  14.844   4.972  0.0931  0.0373  0.2369
 6310W        W 9908  13.756  15.352  11.639  0.0188  0.2151  0.2421
 6311W        W 9909   9.577   5.633   5.309  0.2395 -0.0778 -0.0288
 6312W        W 9910   1.220   6.960  11.182 -0.1813  0.1491 -0.3830
 6313W        W 9911   6.440  13.056  10.640 -0.1144  0.1125  0.2183
 6314W        W 9912   1.799   6.393  11.813  0.0761 -0.1372  0.2585
 6315W        W 9913   5.206   9.882   6.114 -0.0339  0.1190  0.1052
 6316W        W 9914   6.818   0.640  11.544  0.0544  0.0841 -0.1805
 6317W        W 9915  16.364  12.256   5.478  0.0723 -0.5086  0.0405
 6318W        W 9916   5.285  10.681  12.732 -0.0091  0.0805  0.0342
 6319W        W 9917   5.447  12.690  10.060  0.0558  0.0676 -0.2205
 6320W        W 9918   4.533  10.067   7.996  0.0726 -0.1683 -0.0425
 6321W        W 9919   0.122  14.967   5.963  0.2088  0.1528  0.4560
 6322W        W 9920  10.211   2.656   2.744  0.2595 -0.1543 -0.1371
 6323W        W 9921   0.562   5.618   6.908 -0.0126 -0.0502 -0.1603
 6324W        W 9922   8.015  15.038  15.676 -0.0884  0.0022  0.5121
 6325W        W 9923  14.104   0.755  13.952  0.0226  0.0165 -0.3490
 6326W        W 9924   5.809  14.525   2.503 -0.0005  0.0580  0.1225
 6327W        W 9925   1.340   8.896  11.508  0.2236 -0.0762  0.2812
 6328W        W 9926   2.246  16.014   7.631 -0.1843  0.0664  0.1584
 6329W        W 9927   3.310   3.432   7.588 -0.0560 -0.0308 -0.1307
 6330W        W 9928   1.827   5.667   5.667  0.0340  0.2132  0.5087
 6331W        W 9929   9.716   4.065   7.269 -0.1480 -0.0695  0.1583
 6332W        W 9930   2.046  15.473   5.378 -0.1959 -0.0207 -0.2438
 6333W        W 9931   7.822   8.657  15.949  0.1996  0.3196 -0.0001
 6334W        W 9932  12.946   6.018  15.334  0.0516 -0.0339  0.3681
 6335W        W 9933   6.897   9.466   8.977 -0.2629 -0.2284 -0.1130
 6336W        W 9934  12.294  13.867   6.709  0.0528  0.3630 -0.1263
 6337W        W 9935  11.401   7.145  10.735  0.3116  0.2205  0.3085
 6338W        W 9936   9.484  10.195   0.327 -0.0362 -0.2487  0.0715
 6339W        W 9937  10.161  14.341   5.637 -0.2979 -0.3613  0.0205
 6340W        W 9938  14.038   3.223  11.417 -0.1569  0.1854 -0.1870
 6341W        W 9939   9.742  10.527  11.431 -0.3402  0.1192  0.1523
 6342W        W 9940   4.781   3.575  14.872 -0.1518 -0.2529 -0.0266
 6343W        W 9941  12.964   7.051  13.636 -0.0018 -0.0282  0.1596
 6344W        W 9942  12.056   3.391  13.086  0.1842 -0.1819 -0.1447
 6345W        W 9943   1.757   6.507   5.735 -0.0093  0.0366  0.1273
 6346W        W 9944  10.206  13.089   8.028 -0.0201  0.1105 -0.1096
 6347W        W 9945   8.437   8.918   5.371 -0.1241  0.0770  0.0001
 6348W        W 9946   3.197   4.659   9.061 -0.0820  0.0361  0.1374
 6349W        W 9947   2.927  12.063  14.358 -0.1200 -0.0667 -0.0809
 6350W        W 9948   0.225   1.229  13.157 -0.2104  0.0449 -0.0737
 6351W        W 9949  13.401   2.979   0.860 -0.0043  0.1361  0.2343
 6352W        W 9950   9.692  15.482   9.748 -0.1457  0.1752 -0.0941
 6353W        W 9951  16.092   8.785  15.383  0.2834 -0.0540  0.0873
 6354W        W 9952   8.709  11.283   5.431  0.0423 -0.0029  0.0218
 6355W        W 9953   7.056   6.285  15.868  0.0243  0.1348  0.0199
 6356W        W 9954   9.446   5.637  16.365 -0.0452  0.1253 -0.1977
 6357W        W 9955  16.013   9.719  15.173 -0.4301  0.1865  0.1277
 6358W        W 9956   2.551   8.331  13.526  0.1008  0.0795 -0.3233
 6359W        W 9957   1.239  10.663   3.768 -0.1367  0.1472 -0.0005
 6360W        W 9958  14.099   0.878   4.405  0.0684 -0.0632  0.5064
 6361W        W 9959  15.404  14.855   6.043 -0.1053  0.0318 -0.0599
 6362W        W 9960   2.709   9.979  12.733  0.4091  0.1709 -0.0610
 6363W        W 9961  14.174  16.286   8.181 -0.0973  0.0254 -0.0480
 6364W        W 9962   5.177   8.625  11.558 -0.0379  0.0671  0.1929
 6365W        W 9963  10.975  12.752   8.381  0.3939  0.0897 -0.2121
 6366W        W 9964  16.012   9.775   9.305  0.0412 -0.0852 -0.2063
 6367W        W 9965   5.539   4.784  16.341 -0.1381  0.0877 -0.0123
 6368W        W 9966   1.015   4.961   2.481 -0.0604  0.0055 -0.3356
 6369W        W 9967  16.285   3.146   8.370 -0.0556 -0.2032 -0.1202
 6370W        W 9968   8.668  13.516  16.112  0.2597 -0.4852  0.0329
 6371W        W 9969  15.055   4.336   6.925 -0.1047 -0.0163 -0.2024
 6372W        W 9970   5.612  16.213   4.708 -0.2690 -0.1921 -0.0696
 6373W        W 9971   3.792   6.016   2.320 -0.3750 -0.0899  0.2910
 6374W        W 9972   9.650  15.672  16.237  0.1260  0.1323 -0.0002
 6375W        W 9973   8.431  10.118   9.241  0.1550 -0.2425  0.4808
 6376W        W 9974  16.381   7.028   4.031 -0.1031 -0.1201  0.2876
 6377W        W 9975  13.572   7.786  10.948  0.0157 -0.3681  0.2176
 6378W        W 9976  12.002  13.579  13.979  0.0617 -0.1515  0.2541
 6379W        W 9977   7.099   7.771  13.380 -0.0719  0.0335 -0.0008
 6380W        W 9978   1.425  15.099   0.755  0.2915  0.3333 -0.2409
 6381W        W 9979   2.921  11.524  10.471 -0.1596 -0.0005 -0.0578
 6382W        W 9980   2.435  14.021   9.038  0.1346  0.1129 -0.2183
 6383W        W 9981  13.531   3.539  14.696 -0.3065  0.3730  0.2316
 6384W        W 9982  13.822  16.291   6.938  0.0718  0.0631  0.0938
 6385W        W 9983   7.390  14.426   4.225  0.1444 -0.0841 -0.0256
 6386W        W 9984   8.522   8.842  12.999  0.0946 -0.1527  0.0360
 6387W        W 9985  10.819   4.073   3.648 -0.0307  0.1816  0.1028
 6388W        W 9986   4.503  12.596   2.149 -0.0244 -0.0368 -0.1052
 6389W        W 9987   1.491   8.666  12.904 -0.2074  0.1013 -0.1392
 6390W        W 9988   9.146  15.488   5.551  0.0564 -0.2390 -0.2342
 6391W        W 9989   8.993   5.672   0.254 -0.1398 -0.1406 -0.2104
 6392W        W 9990   1.133  11.904   0.744  0.3690 -0.4204  0.0087
 6393W        W 9991   9.623   4.920   9.316 -0.0391  0.0254 -0.1328
 6394W        W 9992   1.226  12.116   7.726 -0.2274 -0.2220  0.2388
 6395W        W 9993  14.396   1.234  15.150  0.0161 -0.0673  0.1696
 6396W        W 9994  10.536  13.575   3.776 -0.3508 -0.1646  0.1136
 6397W        W 9995   8.709  14.990   6.876  0.0733 -0.0777 -0.0303
 6398W        W 9996  13.852   5.733   0.792 -0.0080  0.1916  0.0487
 6399W        W 9997   3.506  11.163   5.444  0.2414 -0.3467  0.0104
 6400W        W 9998   3.416  14.975   3.718  0.2564  0.2030  0.1294
 6401W        W 9999  10.302  12.074   4.899 -0.1013 -0.1481 -0.0140
 6402W        W10000  13.523   7.815   6.013  0.0618 -0.1364 -0.0372
 6403W        W10001   6.371  15.744  15.424  0.3133  0.3159  0.1358
 6404W        W10002  13.767  13.542  15.440 -0.0413  0.0120 -0.1877
 6405W        W10003  11.829   8.720   9.965 -0.0516 -0.2101 -0.1166
 6406W        W10004   4.885   9.804  10.887  0.2258 -0.2715 -0.0717
 6407W        W10005   1.827  12.288  15.703 -0.0254 -0.0735 -0.1461
 6408W        W10006  11.255  12.692   9.412  0.2429  0.1202 -0.0935
 6409W        W10007  13.120   0.784  14.892 -0.0219 -0.0397  0.0160
 6410W        W10008   4.525  10.517   8.827 -0.2770  0.3466  0.2862
 6411W        W10009  13.416   9.394   8.196  0.0936 -0.1662 -0.0886
 6412W        W10010   0.491  14.644  14.698 -0.1475  0.0595 -0.0637
 6413W        W10011   5.306   7.867   9.955 -0.3963  0.0285  0.3162
 6414W        W10012   1.500   5.002   2.756  0.2224 -0.0490  0.5338
 6415W        W10013   5.128   2.451   4.844 -0.0508  0.0751 -0.0001
 6416W        W10014  11.821  12.704  11.946 -0.0478 -0.0815  0.0101
 6417W        W10015   5.394  15.429  10.737  0.2583  0.3280  0.3523
 6418W        W10016  12.045   6.721  15.454  0.2815 -0.1443 -0.3526
 6419W        W10017  12.033  12.852  15.807 -0.0957 -0.0270 -0.2198
 6420W        W10018   7.153   8.846   2.932  0.3849  0.1280  0.0472
 6421W        W10019   9.771  13.453   7.979  0.1691 -0.1092  0.3162
 6422W        W10020   1.995  10.025  11.576 -0.0419 -0.0112 -0.0003
 6423W        W10021  12.455   6.288  16.265  0.0712 -0.4638 -0.2707
 6424W        W10022  14.748   2.352  11.076  0.1233 -0.0881 -0.2866
 6425W        W10023   2.521   2.531   7.812 -0.1555  0.1528 -0.1433
 6426W        W10024   4.765   3.854  14.379  0.1747  0.0457  0.1949
 6427W        W10025   9.174   8.490  12.194  0.0728  0.0300  0.0328
 6428W        W10026   7.087   4.402   0.545 -0.1004  0.0354  0.0143
 6429W        W10027   4.637   0.873   9.490 -0.0791 -0.1722 -0.1959
 6430W        W10028  11.850  13.674  14.832 -0.0890 -0.1261 -0.1521
 6431W        W10029   5.636  11.028  14.198 -0.0182  0.2417  0.2710
 6432W        W10030  10.693   8.407   3.293  0.0525  0.0675  0.0504
 6433W        W10031   4.618  10.838  11.907  0.1518 -0.1166 -0.0421
 6434W        W10032   1.005  14.959   3.899 -0.1324 -0.3313  0.0317
 6435W        W10033  10.305   9.166   0.824  0.0353  0.0647 -0.1952
 6436W        W10034  15.844   6.547   2.912  0.2439 -0.3853 -0.0139
 6437W        W10035   4.595   6.069   5.225 -0.0526 -0.3127 -0.0603
 6438W        W10036  15.255   0.296  10.919 -0.2156 -0.3089 -0.0700
 6439W        W10037   2.833  12.494  10.586  0.2301 -0.1561  0.1914
 6440W        W10038  15.170   9.106  15.180  0.0611  0.0198  0.1027
 6441W        W10039   1.710  14.459   1.258 -0.0905  0.3447 -0.3551
 6442W        W10040   7.594  15.162  12.922 -0.2322 -0.1558 -0.2002
 6443W        W10041   9.486   4.708   7.968  0.2235  0.4246 -0.0809
 6444W        W10042   2.754   9.179   2.860  0.1343  0.3485  0.0057
 6445W        W10043  10.827   7.116   6.267  0.1336 -0.1937 -0.4052
 6446W        W10044   6.358   3.552   5.996 -0.0489 -0.0502  0.1668
 6447W        W10045  15.769   5.917  14.612 -0.3919  0.0729  0.3862
 6448W        W10046   3.805  14.781   0.076 -0.2316 -0.2210  0.2669
 6449W        W10047   4.133  11.544  15.186  0.1195  0.2176  0.3991
 6450W        W10048  11.214   9.661   5.475  0.1247  0.1599  0.2399
 6451W        W10049   4.953   1.960   3.658 -0.0858 -0.3696 -0.0750
 6452W        W10050   9.001   7.832   0.728  0.1127 -0.0033  0.1861
 6453W        W10051  12.607  10.642   9.441 -0.2908  0.2449  0.0140
 6454W        W10052   5.055   4.182  10.424  0.2233 -0.0260 -0.1112
 6455W        W10053  11.254  10.910  12.497 -0.1111 -0.2490  0.0609
 6456W        W10054   2.233   2.978   4.909 -0.1120  0.0049  0.0902
 6457W        W10055  10.926   8.072   1.499 -0.1427  0.0873 -0.4715
 6458W        W10056   6.634  13.243   7.761  0.2605  0.2298 -0.0850
 6459W        W10057  10.448  15.126  14.103 -0.1002  0.0162  0.0178
 6460W        W10058  10.008   0.834   1.003  0.0290 -0.1592 -0.0905
 6461W        W10059   5.139   5.264   7.544 -0.0283 -0.0520 -0.4445
 6462W        W10060   6.507   4.564   3.952 -0.2884  0.1077 -0.1404
 6463W        W10061   3.179  14.560   7.547  0.2533  0.0427  0.1760
 6464W        W10062   2.356   7.210   4.972  0.0125  0.0139 -0.1858
 6465W        W10063   4.138   5.424   6.377 -0.3323 -0.1534 -0.1034
 6466W        W10064   6.410   7.027  15.835  0.3568 -0.1238 -0.0768
 6467W        W10065  12.188  15.562   0.578 -0.0628 -0.0318  0.1772
 6468W        W10066   6.641  12.705   2.599  0.0298 -0.2498 -0.1392
 6469W        W10067  12.080  15.376   5.403  0.0485 -0.0690 -0.0432
 6470W        W10068   0.958   2.485  11.044 -0.0169  0.0789 -0.0640
 6471W        W10069   4.996   7.449   1.199 -0.2397 -0.0112  0.2132
 6472W        W10070   2.514  13.620   0.094 -0.0089 -0.1070 -0.2153
 6473W        W10071   9.381   2.273   2.715 -0.2570  0.1040 -0.1242
 6474W        W10072   8.105  12.507   7.185  0.3459 -0.0548  0.1496
 6475W        W10073   0.023   6.003  11.942 -0.0165  0.1245 -0.4732
 6476W        W10074   0.697   4.595   2.690 -0.1296 -0.1271 -0.0472
 6477W        W10075  13.269  14.838   4.570  0.0365  0.0889  0.3567
 6478W        W10076   6.694   4.431  15.674  0.0687 -0.0390 -0.2774
 6479W        W10077  11.016   1.504   3.549 -0.2687 -0.1358  0.0017
 6480W        W10078   8.378   5.605   4.156 -0.0077  0.1410  0.0640
 6481W        W10079   4.733   3.426  11.714 -0.0642  0.2661 -0.0077
 6482W        W10080  13.601   1.568   5.132  0.0470 -0.2771  0.0236
 6483W        W10081   9.658   3.503   1.609  0.0155 -0.1491  0.1127
 6484W        W10082   9.326  13.956  13.398  0.1871 -0.1584 -0.2579
 6485W        W10083  12.727   0.238  13.851  0.1511  0.1311 -0.1423
 6486W        W10084   3.349  14.164   5.421 -0.0043 -0.3033  0.0783
 6487W        W10085   5.183  13.430   5.004 -0.2145  0.0813 -0.2565
 6488W        W10086   8.915   0.940  14.603 -0.0417  0.0951 -0.0047
 6489W        W10087  14.363  13.856   6.006  0.3424  0.0495 -0.0521
 6490W        W10088   3.305  13.091   1.479 -0.0471 -0.0203  0.1279
 6491W        W10089  15.418  10.817   0.630 -0.1293 -0.3257  0.2148
 6492W        W10090   9.174  15.533  16.130  0.0620 -0.0138  0.1463
 6493W        W10091   9.725  13.619   8.960  0.2952  0.0116 -0.0735
 6494W        W10092  11.821  15.655   8.760  0.1942  0.0727  0.2077
 6495W        W10093  15.919   5.792   0.614  0.1154  0.1835  0.1820
 6496W        W10094  11.101  10.495  15.944  0.2446 -0.2213 -0.0611
 6497W        W10095  11.293   5.512  12.659  0.0350 -0.0721  0.2281
 6498W        W10096  12.232   7.287   0.988  0.2299 -0.1047 -0.0665
 6499W        W10097  11.334  11.791  11.244  0.2739 -0.0025 -0.1810
 6500W        W10098  11.224   6.642   5.070  0.0553  0.0725  0.1551
 6501W        W10099   9.723   3.092   8.569  0.0340  0.2575 -0.0406
 6502W        W10100  10.641  13.500   1.312  0.1208  0.0433 -0.0492
 6503W        W10101   9.256   0.810   2.195  0.4002 -0.0031  0.1048
 6504W        W10102  15.996   8.155  14.452 -0.1389 -0.3149 -0.3261
 6505W        W10103   7.501  13.335  14.302  0.0601 -0.2247  0.1285
 6506W        W10104   9.496  12.061   9.426 -0.3072  0.0085 -0.1321
 6507W        W10105  15.743   2.994   8.905  0.2282 -0.2226 -0.0609
 6508W        W10106   3.880  10.977   7.743 -0.2589 -0.1725  0.0514
 6509W        W10107  15.177   1.571   9.351 -0.1338 -0.1024 -0.2039
 6510W        W10108   8.209  13.193   6.095 -0.1938 -0.0492  0.1174
 6511W        W10109  10.505   9.577   8.161  0.1465  0.1210 -0.2713
 6512W        W10110   8.898   5.249   9.827 -0.2630  0.0632 -0.3144
 6513W        W10111  12.815  15.623   4.063  0.0440 -0.0472 -0.1313
 6514W        W10112  12.865  16.178   6.083 -0.1627  0.1298 -0.2104
 6515W        W10113   4.776   1.086   3.570  0.1300 -0.1340 -0.0389
 6516W        W10114   6.042   2.747  13.009  0.0638  0.0430 -0.1619
 6517W        W10115  10.693   8.080   8.589  0.2997 -0.0936  0.2589
 6518W        W10116  12.101  15.990   8.975 -0.2074 -0.1872 -0.0989
 6519W        W10117  14.593  11.871   7.245  0.2557  0.0488 -0.3448
 6520W        W10118  10.712   7.422  13.370  0.0064  0.1055 -0.1989
 6521W        W10119   1.083   2.917  15.528 -0.1775  0.0623 -0.1324
 6522W        W10120   1.507   9.771   3.663  0.1453  0.0215  0.2150
 6523W        W10121   3.800   2.785   7.393 -0.1809  0.3173 -0.0012
 6524W        W10122   4.591   7.170  16.111 -0.1643 -0.1425  0.1983
 6525W        W10123  10.105   2.765   4.102 -0.0389 -0.0232  0.1766
 6526W        W10124  16.267   4.278  12.973  0.0496  0.2192  0.0321
 6527W        W10125   2.748   7.762  11.097  0.2224  0.0333  0.1981
 6528W        W10126   2.595  10.389  10.288 -0.2700  0.0160  0.1697
 6529W        W10127  12.980   9.527   0.160 -0.3396  0.0948 -0.1438
 6530W        W10128   9.419   8.332   6.810  0.0913  0.1772 -0.0185
 6531W        W10129   9.448   2.613   6.314  0.1335 -0.0572 -0.0511
 6532W        W10130   8.038   1.472   0.709 -0.0002  0.1339  0.3081
 6533W        W10131   2.950   7.899   2.904 -0.1897 -0.0843  0.0759
 6534W        W10132   5.017  10.921   4.621  0.2516  0.2751  0.1418
 6535W        W10133   1.925  10.395   1.242  0.3710  0.3055  0.0496
 6536W        W10134   5.114  16.221  13.293 -0.0481 -0.1748  0.0454
 6537W        W10135  14.974  12.204  13.683 -0.1784 -0.1667 -0.2142
 6538W        W10136   9.852   2.806   6.053  0.0725  0.1148 -0.0862
 6539W        W10137  12.925   7.339  14.065  0.2650  0.1209  0.3158
 6540W        W10138  15.145  12.047   2.642  0.3607 -0.1828 -0.3637
 6541W        W10139   1.501  15.398   7.325  0.1776 -0.0997 -0.0644
 6542W        W10140  12.045   5.788   6.446  0.0469  0.0565 -0.0649
 6543W        W10141  15.920   0.970  13.953 -0.0605 -0.1046 -0.0438
 6544W        W10142   5.890   7.869   3.237  0.1165 -0.1875  0.0459
 6545W        W10143  13.636  14.882   6.677  0.0374  0.1298  0.0416
 6546W        W10144   0.927  15.769   1.799 -0.2217 -0.1323 -0.1665
 6547W        W10145  12.061   2.841   4.609  0.2274  0.0035  0.0045
 6548W        W10146  14.826   6.760   4.324  0.0877 -0.0209  0.0231
 6549W        W10147   4.570   4.089   3.990 -0.1398  0.4243  0.1910
 6550W        W10148  15.623  14.083   9.205 -0.2758 -0.1274 -0.1027
 6551W        W10149   0.395   4.866   4.816  0.1144 -0.3220 -0.0414
 6552W        W10150   1.287   5.908  13.034  0.0017  0.0546 -0.0449
 6553W        W10151  10.523   4.702  12.722  0.0764  0.0737  0.3332
 6554W        W10152   2.144   3.414   3.747  0.0183 -0.4001 -0.1221
 6555W        W10153  10.784  12.177   7.114  0.0082 -0.1072 -0.2413
 6556W        W10154   1.484   2.855   6.215  0.3911  0.1740 -0.0531
 6557W        W10155   1.776   7.063  13.394  0.1293  0.0138 -0.1216
 6558W        W10156  10.047   8.324  13.941  0.0334  0.0206 -0.1718
 6559W        W10157   2.057  10.928   0.446  0.1541 -0.1140 -0.5204
 6560W        W10158   0.632  13.230   5.572  0.0742  0.0721 -0.3281
 6561W        W10159  13.328   7.579  14.425 -0.0544 -0.0813 -0.2848
 6562W        W10160   6.835  13.032   8.715  0.0298  0.1969 -0.0101
 6563W        W10161  16.289  14.250  13.571 -0.1609  0.0339 -0.1150
 6564W        W10162   7.174   9.665  14.679  0.0599  0.0036 -0.2542
 6565W        W10163   7.138   9.943   6.796  0.1118  0.1045  0.3055
 6566W        W10164  13.077   4.189  13.826  0.0626  0.0667 -0.1285
 6567W        W10165  11.000  12.748   3.743 -0.1745 -0.0258 -0.0769
 6568W        W10166   2.476  14.433   5.787  0.2055  0.2502  0.0388
 6569W        W10167  13.430  13.061  16.343  0.1414  0.2430  0.1867
 6570W        W10168   8.552  10.613  16.393 -0.2863  0.0566  0.0046
 6571W        W10169   6.257   9.778  14.384 -0.1726  0.0449 -0.0739
 6572W        W10170  10.995  15.337   9.282 -0.2374 -0.4239  0.5488
 6573W        W10171   4.009  16.113  10.466 -0.0441  0.3307 -0.1170
 6574W        W10172   6.420  11.422  14.071  0.1969  0.2290  0.1004
 6575W        W10173  15.923  15.453  15.485  0.2482  0.0540 -0.0503
 6576W        W10174  12.358   3.830   7.864  0.3057  0.1344  0.0553
 6577W        W10175  14.904  12.804   5.054  0.3292  0.1492  0.3380
 6578W        W10176  14.828  14.540  11.461 -0.1050 -0.1494  0.2499
 6579W        W10177   5.660   9.887   3.280 -0.0024 -0.0530 -0.0301
 6580W        W10178  13.914   1.969   0.867  0.0302 -0.0151  0.0446
 6581W        W10179   3.554  15.827  16.170  0.0062  0.3278  0.2271
 6582W        W10180   9.337  15.969  12.419  0.1239  0.0511 -0.0407
 6583W        W10181  10.703  11.887  10.593  0.0238 -0.0185  0.3438
 6584W        W10182   0.789  13.606   3.736 -0.1183  0.1974 -0.0046
 6585W        W10183  10.204   9.161   2.395 -0.0519 -0.5028  0.0178
 6586W        W10184   8.407  16.206  11.731 -0.4839 -0.1086  0.1754
 6587W        W10185   7.704   2.757  15.172 -0.2979 -0.0271 -0.2040
 6588W        W10186   9.971   1.015  11.591  0.2796  0.0783 -0.0678
 6589W        W10187  13.016   8.559  14.476 -0.1494  0.2708 -0.0195
 6590W        W10188   9.119  13.068   3.848  0.1700 -0.1822  0.2637
 6591W        W10189   4.732  10.453   4.727 -0.0441  0.0691  0.1969
 6592W        W10190   5.397   0.443  10.085 -0.2066 -0.1522  0.1002
 6593W        W10191  13.601  11.875   6.344 -0.2258 -0.2713  0.2719
 6594W        W10192   2.679  13.574  10.466  0.0463 -0.2495  0.1580
 6595W        W10193  16.204  12.953  12.706 -0.2693  0.4230  0.1620
 6596W        W10194   0.084   7.436   4.839 -0.1196  0.1153  0.1258
 6597W        W10195  15.876  15.010  15.636  0.2099 -0.2165 -0.0389
 6598W        W10196   3.996   9.863   4.504  0.5256 -0.0293 -0.0193
 6599W        W10197   0.357  15.575  13.655  0.0505  0.0492 -0.1656
 6600W        W10198   7.114   5.989   0.276  0.0400  0.3707 -0.1501
 6601W        W10199  15.588   8.613  11.137 -0.0719  0.2262  0.1556
 6602W        W10200  12.911  14.290  10.153 -0.1726  0.0907 -0.0382
 6603W        W10201  14.792   2.710   5.239 -0.0514  0.0492 -0.0125
 6604W        W10202   9.363   5.379   8.522 -0.0669  0.2901 -0.2614
 6605W        W10203   5.634  13.475   0.155 -0.1198  0.0936 -0.1874
 6606W        W10204   2.668   8.398  11.914 -0.2811  0.0097 -0.0305
 6607W        W10205  10.305  10.844   4.508 -0.0203 -0.0348  0.2001
 6608W        W10206  12.999   4.529  12.116 -0.1553  0.3155  0.1245
 6609W        W10207   0.200  16.104  15.513  0.2367 -0.1589  0.2641
 6610W        W10208   8.938   6.203   0.192  0.0680  0.0387  0.0658
 6611W        W10209   5.119  14.884  14.347 -0.1351  0.1192 -0.0119
 6612W        W10210   1.524  12.622   1.012 -0.0941 -0.1958 -0.0332
 6613W        W10211   8.240   2.274   6.169 -0.0096  0.4393  0.1927
 6614W        W10212   8.217   4.286   9.264 -0.0100  0.1158  0.2780
 6615W        W10213  11.168  11.959   9.953  0.2087  0.1797 -0.0246
 6616W        W10214  10.085   6.990   2.486  0.1899  0.1167  0.1323
 6617W        W10215  15.758  13.696   6.743 -0.0829 -0.3486  0.1048
 6618W        W10216  12.051   2.219   7.038  0.1221  0.0789 -0.3619
 6619W        W10217  13.144  13.778  10.881  0.2552 -0.2192 -0.1109
 6620W        W10218  10.435  14.306   8.510 -0.0961  0.0884  0.0689
 6621W        W10219  15.031   8.817   4.324 -0.2375  0.0430  0.0493
 6622W        W10220  15.080   1.345   1.381  0.2550  0.1652 -0.1017
 6623W        W10221   7.619   8.239   7.251 -0.3781  0.1718 -0.0629
 6624W        W10222  12.605   6.935  12.851  0.0663 -0.0973 -0.1681
 6625W        W10223   5.582   2.509   0.724 -0.1808 -0.0086  0.0888
 6626W        W10224  11.453  16.228   3.554  0.2071  0.1934  0.0359
 6627W        W10225   9.079  15.897  10.594 -0.1319  0.1605 -0.0684
 6628W        W10226   3.329   4.744  11.660 -0.2134 -0.2142 -0.3338
 6629W        W10227   1.101   7.994   3.992  0.0838 -0.1851 -0.0812
 6630W        W10228  12.586   0.225   6.334  0.0611  0.0733 -0.1728
 6631W        W10229   8.328  10.231   7.051  0.2064 -0.0477  0.1570
 6632W        W10230  11.298  12.241  15.452 -0.0451 -0.0635  0.1135
 6633W        W10231   7.396   4.025  15.380  0.0681  0.1168 -0.1452
 6634W        W10232  12.261   5.915  15.805 -0.1910  0.0449 -0.0393
 6635W        W10233   8.035   3.725   2.826 -0.1227 -0.1455  0.2262
 6636W        W10234  15.639  10.290  13.937  0.1537 -0.1339 -0.0418
 6637W        W10235  13.831   3.668   8.708  0.1121  0.1395  0.6417
 6638W        W10236  14.723   2.923   6.601 -0.0462 -0.3518  0.1458
 6639W        W10237  10.816  12.689   6.373 -0.0267  0.1799  0.0224
 6640W        W10238   8.689   5.652  15.222  0.0989 -0.1514 -0.1459
 6641W        W10239   1.093   9.148   7.193 -0.0784  0.4978  0.1004
 6642W        W10240   2.457   3.738   6.884 -0.1015 -0.2047 -0.0235
 6643W        W10241  10.874  14.391   7.772  0.0945  0.1663  0.0975
 6644W        W10242   3.408   4.964  16.209 -0.1635 -0.1582  0.0177
 6645W        W10243  14.197   8.111  12.322 -0.0916  0.1745 -0.0456
 6646W        W10244   9.892   7.118   7.053  0.2991  0.6321  0.2764
 6647W        W10245   5.376  12.765   0.529 -0.0762  0.1800 -0.2330
 6648W        W10246   2.518   1.889  14.592 -0.1771  0.0900  0.5199
 6649W        W10247  10.138   4.668  13.981 -0.1662 -0.0189 -0.5333
 6650W        W10248   4.346   3.501   9.284 -0.1573 -0.2417  0.3541
 6651W        W10249   6.348   7.762   5.940  0.0016 -0.0325 -0.1801
 6652W        W10250   0.501   4.531   5.188  0.0195 -0.0000  0.3439
 6653W        W10251   9.289   7.967   1.230 -0.2083  0.0095  0.0321
 6654W        W10252   9.825   8.399  13.501  0.0632 -0.0788 -0.0300
 6655W        W10253   8.608  10.605   0.519 -0.1463 -0.1547 -0.0753
 6656W        W10254   1.396  13.822   2.666 -0.1004  0.3336  0.0291
 6657W        W10255   7.744   7.042  11.124  0.0573  0.3620 -0.1433
 6658W        W10256   8.590  13.500  14.314 -0.0319  0.0459 -0.3530
 6659W        W10257  13.548   0.375  11.727  0.1472  0.1611  0.2657
 6660W        W10258   4.591   8.723   1.779 -0.1066  0.0219  0.0643
 6661W        W10259   3.566   7.691   5.517 -0.0060  0.0825  0.0960
 6662W        W10260   8.058   1.425   6.071  0.1747  0.1204 -0.1384
 6663W        W10261   2.401   3.877  12.130  0.2177  0.1711  0.2017
 6664W        W10262   8.628  12.754   3.261  0.1129  0.5330  0.1669
 6665W        W10263  10.683  11.271  10.488  0.2257  0.1504  0.2328
 6666W        W10264   7.846   6.593   5.438 -0.2975  0.0627  0.0227
 6667W        W10265  11.780   8.367  15.872 -0.0194  0.0660 -0.0420
 6668W        W10266   3.963  15.412  11.104 -0.0543  0.1283  0.0743
 6669W        W10267   4.153  15.342  15.883  0.1862 -0.1548 -0.1129
 6670W        W10268  13.690   0.003   5.515  0.5418  0.3322 -0.2176
 6671W        W10269   4.388   7.420   0.914 -0.0159  0.2278  0.0525
 6672W        W10270  15.732   2.185   3.678 -0.2565  0.1124 -0.1066
 6673W        W10271  15.900  10.044   6.108 -0.1456  0.0102  0.0258
 6674W        W10272   6.978   9.660   1.983 -0.2032  0.1876  0.1601
 6675W        W10273   6.748  11.431   5.020 -0.2523  0.3708  0.2340
 6676W        W10274   1.582  12.112   0.320  0.2796  0.0100  0.0333
 6677W        W10275  11.202  13.609   0.222  0.1277 -0.2024  0.2108
 6678W        W10276   2.902   2.751   8.057 -0.0361  0.0033 -0.0649
 6679W        W10277   5.546   6.337   3.891 -0.3618 -0.1321  0.1497
 6680W        W10278   5.932   0.543   5.148 -0.0045  0.1521  0.0221
 6681W        W10279  15.360   8.929  14.108 -0.2203  0.0600  0.3919
 6682W        W10280   0.961   4.954   3.079  0.0337  0.0584 -0.0966
 6683W        W10281   2.020  15.052  11.627  0.1215 -0.0778 -0.0350
 6684W        W10282   8.543   5.591  10.655 -0.2936 -0.2758 -0.0988
 6685W        W10283   9.601  10.560   4.864 -0.1514  0.1470  0.1833
 6686W        W10284   5.720  12.966  14.919 -0.2713 -0.3271  0.1032
 6687W        W10285   6.921   4.200  10.350 -0.1104 -0.2337  0.0004
 6688W        W10286  10.647   1.475   5.268  0.1096 -0.0737  0.1262
 6689W        W10287   8.870   0.462  12.681  0.1288  0.2073  0.1252
 6690W        W10288   7.869   9.779  12.474 -0.1543  0.0771 -0.1510
 6691W        W10289  13.308  15.962   8.111 -0.1323 -0.1177 -0.1957
 6692W        W10290  11.803   6.337   6.358  0.1045  0.1340  0.1874
 6693W        W10291   6.624  14.142   1.539 -0.0927  0.0463 -0.0409
 6694W        W10292   6.071  14.423   9.775 -0.0971  0.1370  0.0946
 6695W        W10293  15.867   9.405  14.778  0.0426 -0.1235  0.0237
 6696W        W10294  12.163   6.817   7.367 -0.3661  0.0411  0.2233
 6697W        W10295   6.478   1.141   3.947  0.1655 -0.0734  0.1870
 6698W        W10296   0.477   7.700  11.719  0.1878  0.0674  0.2039
 6699W        W10297   3.380  12.302   9.451  0.1937  0.0936 -0.0956
 6700W        W10298   7.250  10.862   8.276  0.1532  0.0465  0.0026
 6701W        W10299   1.502  14.142   7.344  0.0598  0.1513 -0.0738
 6702W        W10300  13.087  13.265  14.825 -0.1568  0.2014 -0.1650
 6703W        W10301   6.228   2.026   4.292  0.0861 -0.1240 -0.1951
 6704W        W10302  14.513  16.167   9.801 -0.1499 -0.2004  0.2216
 6705W        W10303   0.826  11.484   6.950 -0.0794 -0.1153  0.2946
 6706W        W10304  11.280   7.692   0.207  0.2520 -0.3242  0.1323
 6707W        W10305   2.834  12.110   2.233  0.3330  0.0473  0.0588
 6708W        W10306  10.586   7.455   7.486  0.0059  0.2035 -0.1744
 6709W        W10307  14.137   7.359   7.059 -0.1698 -0.1207  0.1012
 6710W        W10308  13.237  15.982  14.956 -0.0235  0.0248  0.2084
 6711W        W10309   9.429   2.459  14.451  0.0372 -0.1315  0.1540
 6712W        W10310   4.537   5.758   9.937  0.1284  0.2288 -0.0114
 6713W        W10311  16.208   6.726   7.516 -0.2979  0.2235 -0.0346
 6714W        W10312   5.099   8.245   5.564 -0.0530  0.3140 -0.0205
 6715W        W10313   6.357  12.867  10.130 -0.1461  0.0696 -0.1823
 6716W        W10314   3.736   4.579   6.163  0.1497 -0.1137 -0.2820
 6717W        W10315   5.165  14.905  13.831  0.0259  0.3197 -0.0075
 6718W        W10316   3.884   8.447  13.014 -0.0581 -0.1450 -0.2061
 6719W        W10317   4.881  14.101   9.607 -0.2514  0.0012  0.0678
 6720W        W10318   4.853   9.507   0.577 -0.1580 -0.1344 -0.1600
 6721W        W10319  11.770  10.268   7.489  0.1789  0.0463 -0.2577
 6722W        W10320  12.448   8.389  13.102  0.0640  0.1563 -0.0035
 6723W        W10321  13.882  13.410   6.900 -0.1209  0.0734  0.4614
 6724W        W10322  11.709   2.590  12.847  0.1271  0.0920 -0.2049
 6725W        W10323   2.958   9.032   4.726  0.3489  0.0332 -0.1971
 6726W        W10324   8.982   3.135   9.593  0.0078  0.0022 -0.3287
 6727W        W10325  11.472   2.888   4.769  0.1221 -0.2661 -0.0300
 6728W        W10326  10.924   3.989  12.390 -0.1068  0.1854 -0.0770
 6729W        W10327   4.758   0.242   2.783 -0.1935 -0.0386 -0.4285
 6730W        W10328   2.257   7.735   4.963 -0.0106  0.0459  0.2733
 6731W        W10329  16.254   6.989   1.805  0.0737 -0.2303 -0.1332
 6732W        W10330   0.934   1.556   3.312  0.2829  0.2599  0.1433
 6733W        W10331  15.397   0.489   5.648 -0.0944 -0.1356 -0.1745
 6734W        W10332   1.823  15.600   9.709  0.1407 -0.1343  0.0454
 6735W        W10333   4.911   8.291   4.579 -0.1641 -0.2812  0.1617
 6736W        W10334   4.282   3.186  12.467 -0.0934  0.0203 -0.2253
 6737W        W10335  12.751   9.907   4.450  0.0212 -0.1214  0.0974
 6738W        W10336   8.553   8.226   6.111 -0.1674  0.0304  0.0003
 6739W        W10337   1.821  15.205  12.659  0.1508 -0.0995  0.1744
 6740W        W10338   7.692  10.836  11.790  0.1905 -0.1106  0.1386
 6741W        W10339   8.387  11.195  15.740  0.1762 -0.0845 -0.5046
 6742W        W10340   3.024   2.811  13.931 -0.1369  0.1032  0.1754
 6743W        W10341   7.213  10.674  11.579  0.0014  0.0473 -0.1391
 6744W        W10342   8.213   1.787   4.364 -0.0225 -0.2486  0.0860
 6745W        W10343  14.383   8.344   7.675  0.0401 -0.3005  0.0393
 6746W        W10344  12.013   8.176   6.127  0.0240 -0.1046 -0.0358
 6747W        W10345  10.362   1.231   1.091 -0.1441  0.3678  0.1432
 6748W        W10346  12.876   9.936  16.262 -0.1011 -0.1684 -0.3991
 6749W        W10347  11.367  12.970   6.264 -0.0320  0.2230 -0.0186
 6750W        W10348  13.294   8.717   4.677  0.0997  0.1501 -0.4108
 6751W        W10349  10.880   0.477   9.790  0.0506  0.1122  0.2643
 6752W        W10350   8.324   5.655  15.701 -0.0408  0.0896  0.2028
 6753W        W10351  10.731  12.496   2.629 -0.2087  0.0813  0.3348
 6754W        W10352   6.524   2.733   1.217 -0.3796 -0.0660 -0.2361
 6755W        W10353  11.284   0.451  10.215 -0.2964  0.1575 -0.0014
 6756W        W10354   4.837  11.782  13.567 -0.1574  0.1171  0.1979
 6757W        W10355   3.074  14.831   7.150  0.0964 -0.1401  0.0985
 6758W        W10356   0.030   2.975  10.837  0.0433 -0.0848  0.0085
 6759W        W10357   4.923   7.016   4.431  0.2725 -0.0065  0.2649
 6760W        W10358  12.052  15.356   2.704 -0.0094 -0.1874  0.1061
 6761W        W10359   1.329  15.523   1.935 -0.1155 -0.0774 -0.0674
 6762W        W10360  13.684   3.332  12.699 -0.1551 -0.1498 -0.1531
 6763W        W10361   5.413   2.031   6.099  0.0862  0.0902  0.0811
 6764W        W10362   2.875  13.474   6.477  0.0498 -0.0865  0.0019
 6765W        W10363  13.708   3.672   6.767  0.0852  0.2120  0.0860
 6766W        W10364  10.398   7.915   0.295 -0.1229  0.1293 -0.2843
 6767W        W10365   4.711  11.350  11.152  0.1057  0.1388  0.1351
 6768W        W10366   4.337  10.696   9.817 -0.2383  0.2460  0.1805
 6769W        W10367   6.699  10.201   2.948  0.0371  0.0210  0.1680
 6770W        W10368   6.765   7.486   3.580  0.1181  0.2444 -0.2017
 6771W        W10369   9.159  10.858   0.103  0.3071 -0.3271  0.0507
 6772W        W10370   3.834  13.620   2.182 -0.1276  0.0474 -0.2137
 6773W        W10371  10.345   7.449   0.509  0.1589 -0.2833  0.0016
 6774W        W10372   2.188  13.106   1.214  0.3640  0.7153  0.1026
 6775W        W10373  14.677  13.100   2.572 -0.2279 -0.0775 -0.2998
 6776W        W10374  12.383   3.157   7.026 -0.1498 -0.1880 -0.1051
 6777W        W10375  11.786  11.561   1.168  0.1558  0.0972  0.0861
 6778W        W10376  11.298   5.934   0.541  0.0597 -0.4386  0.3228
 6779W        W10377  12.220   7.765  15.801 -0.4539  0.1407 -0.0407
 6780W        W10378   4.365  15.206  14.508  0.3216  0.0006  0.1627
 6781W        W10379   6.803   9.800  10.610 -0.1238  0.0984 -0.2978
 6782W        W10380   4.912   7.323   5.235 -0.1225 -0.0939 -0.1523
 6783W        W10381   8.419   2.725   1.112 -0.0803  0.0299  0.0873
 6784W        W10382   4.865   1.870   6.628 -0.1873 -0.0305 -0.0201
 6785W        W10383   7.530  15.434  12.133  0.2504 -0.2220  0.0211
 6786W        W10384   1.818   1.180   2.921 -0.1151 -0.3846  0.1479
 6787W        W10385   0.297   3.223   4.786 -0.2018  0.2079 -0.0927
 6788W        W10386   9.051   1.793  10.059 -0.0114 -0.0726  0.3543
 6789W        W10387  16.229   6.498   1.708  0.0211  0.1767  0.0231
 6790W        W10388   6.117   2.868   8.190  0.2321 -0.0880  0.1987
 6791W        W10389   2.394  10.886   4.673  0.0051  0.2735  0.2163
 6792W        W10390   5.118   5.960   0.403 -0.6253  0.1263  0.1565
 6793W        W10391  16.055   9.132   2.507 -0.2082  0.1813 -0.0908
 6794W        W10392  15.986   9.009   6.635 -0.0370 -0.0369 -0.0699
 6795W        W10393  10.448   9.383  15.408  0.0010  0.1940 -0.2479
 6796W        W10394   9.190  15.748   7.721  0.1330 -0.3206  0.0663
 6797W        W10395  14.254  14.858  15.577 -0.0715 -0.4189  0.0080
 6798W        W10396   6.552  16.176  11.473  0.1237 -0.1017 -0.0052
 6799W        W10397   2.372   9.771   8.048 -0.0044  0.0990 -0.2961
 6800W        W10398  12.974  10.654   1.553  0.0702  0.2669  0.2092
 6801W        W10399   9.628   5.944  12.986 -0.2269 -0.0281  0.1044
 6802W        W10400   5.052   4.557   3.257  0.2402 -0.2539 -0.1365
 6803W        W10401   1.296  16.239  14.610  0.0371  0.1657 -0.0276
 6804W        W10402  12.402   6.006  11.314  0.0333  0.1803 -0.0360
 6805W        W10403   7.910  11.620  13.161 -0.0616  0.1554 -0.1878
 6806W        W10404  12.858   4.294   9.475  0.2025 -0.1464  0.0266
 6807W        W10405   7.434  15.997  11.970 -0.0075 -0.1985 -0.1313
 6808W        W10406  12.655  15.209   3.189  0.0927  0.2459 -0.0627
 6809W        W10407  10.843   7.052   7.640  0.1851  0.1030  0.0379
 6810W        W10408  11.285   9.931   6.053  0.0946 -0.0594 -0.1146
 6811W        W10409  13.034   0.821  10.539 -0.0079  0.0399  0.0719
 6812W        W10410  10.359   5.238  11.971 -0.4393  0.0881 -0.1928
 6813W        W10411  15.414   4.364  10.121  0.1727  0.1424 -0.0580
 6814W        W10412   0.276   7.958   4.034 -0.1858  0.0030  0.0292
 6815W        W10413  11.324   2.713  13.275  0.3565  0.1560 -0.0278
 6816W        W10414   9.142   0.984   5.541  0.1201 -0.1906  0.0623
 6817W        W10415   2.249  14.086  15.965 -0.1189 -0.2614  0.0659
 6818W        W10416  14.181   4.850   8.948 -0.0596  0.1163  0.0545
 6819W        W10417   6.764   3.441   8.628  0.1636 -0.0201 -0.2303
 6820W        W10418  11.543  12.335  11.228 -0.1303 -0.2529 -0.2373
 6821W        W10419   0.165   7.379  16.253 -0.0384  0.3537  0.3794
 6822W        W10420  10.746  12.778  10.174 -0.0484  0.0768  0.1196
 6823W        W10421   2.530   2.296   0.052 -0.0742 -0.1283  0.0531
 6824W        W10422  10.871   9.949   5.781 -0.0265  0.1493 -0.0363
 6825W        W10423   2.487   7.908  14.205  0.0224 -0.2664  0.0042
 6826W        W10424   4.357   2.812   6.115  0.0948 -0.2452  0.3754
 6827W        W10425  16.063   3.951  15.872  0.1646 -0.0632  0.1620
 6828W        W10426   2.844  10.286  15.378 -0.1952  0.1156 -0.2765
 6829W        W10427   7.148  13.553   2.298  0.0764  0.2101 -0.0769
 6830W        W10428   3.293   7.233  11.662 -0.1226  0.0597 -0.1053
 6831W        W10429   3.797  13.164   0.330 -0.2435  0.0095  0.0565
 6832W        W10430  11.540   5.565   9.031 -0.1825 -0.0516 -0.1998
 6833W        W10431   1.792   2.461   2.816 -0.2836  0.0030  0.0920
 6834W        W10432  14.511  14.898   6.427 -0.2282 -0.2716  0.0280
 6835W        W10433  12.292   7.888  11.208 -0.1763  0.1211  0.1818
 6836W        W10434  15.383   9.086   4.533  0.2718  0.0126  0.0286
 6837W        W10435   6.729   5.958   9.036 -0.0694 -0.2129 -0.2396
 6838W        W10436   9.378   8.164  15.587 -0.2578 -0.3632  0.2023
 6839W        W10437   5.854  12.495   7.681  0.1961  0.1372  0.1020
 6840W        W10438   6.363   7.491   1.257 -0.4239  0.0871  0.1512
 6841W        W10439  15.773  11.317  10.221  0.1205 -0.2951  0.0700
 6842W        W10440  10.446   7.178   7.894 -0.0399  0.1581 -0.0965
 6843W        W10441   2.077   5.014   3.495  0.3359 -0.2265  0.0031
 6844W        W10442   3.071   6.371   5.067 -0.1032  0.1737  0.1783
 6845W        W10443   4.416   0.923  13.651  0.0229  0.1841 -0.2893
 6846W        W10444  15.657  14.811  14.764  0.0269  0.1392 -0.1007
 6847W        W10445   9.801   8.978   8.862  0.2486  0.2261  0.1395
 6848W        W10446   6.923  11.950   8.639 -0.1324  0.0147  0.0070
 6849W        W10447  13.973  12.831   8.103 -0.1013 -0.1803  0.0783
 6850W        W10448   2.204   7.968   8.548 -0.1076 -0.1517 -0.0195
 6851W        W10449   5.850  10.759   1.603 -0.0093  0.0518 -0.0245
 6852W        W10450   5.678   3.773  11.289 -0.4131 -0.0381 -0.2761
 6853W        W10451   7.011   7.317   6.957 -0.0764  0.0189  0.0387
 6854W        W10452  11.141   3.664  12.985  0.2017  0.2336  0.1133
 6855W        W10453  10.825   3.411  14.991 -0.2263 -0.2443 -0.1651
 6856W        W10454   5.790   8.850   1.238  0.0236  0.5713 -0.0321
 6857W        W10455   3.563   8.941  10.770 -0.0075  0.1412 -0.1285
 6858W        W10456  12.263   2.395  11.455  0.2687 -0.1807 -0.0149
 6859W        W10457   0.358  11.429   6.880 -0.0993 -0.1735  0.0101
 6860W        W10458  11.086   6.345  12.311  0.0530  0.2498  0.0094
 6861W        W10459   9.095   8.461   4.912  0.2643  0.1804 -0.1463
 6862W        W10460  12.072   1.319  14.268 -0.1901  0.0872 -0.0609
 6863W        W10461   0.615  11.236   3.804  0.0042  0.0825 -0.0659
 6864W        W10462  12.075  11.357   4.330 -0.0684  0.1382  0.0233
 6865W        W10463  14.617   4.686   8.017 -0.2184  0.2220 -0.0021
 6866W        W10464   2.085  15.391   8.178  0.1987 -0.1888 -0.2482
 6867W        W10465  16.222   1.368   1.070 -0.2148  0.2682 -0.2153
 6868W        W10466   6.353   7.447   9.086 -0.0552 -0.1294 -0.2319
 6869W        W10467  10.085  15.295   1.941  0.1726  0.2485  0.3887
 6870W        W10468   4.670   0.935  10.795 -0.2001 -0.0522  0.0972
 6871W        W10469   1.821   2.147  14.138  0.2144  0.3235 -0.1161
 6872W        W10470   8.579   9.797   0.876 -0.0665 -0.2062 -0.0171
 6873W        W10471   6.925   2.668   2.164 -0.0498  0.0162  0.0288
 6874W        W10472   6.712   7.630   4.158  0.2389  0.0249  0.0059
 6875W        W10473  13.724  12.825   1.020  0.2801  0.0860 -0.2307
 6876W        W10474   8.581   4.662   8.492 -0.0130  0.0395  0.0586
 6877W        W10475  15.084  15.079   6.381 -0.0113 -0.3792  0.0503
 6878W        W10476  13.583  15.142   7.602 -0.1808  0.1949 -0.1359
 6879W        W10477   1.189   3.886   8.225  0.2161  0.1418  0.1000
 6880W        W10478   4.666  11.551   3.837 -0.0660  0.1439 -0.4925
 6881W        W10479   2.307   8.749  12.660 -0.2450  0.1156  0.0534
 6882W        W10480   6.287   3.829  12.766  0.0054 -0.2573  0.1552
 6883W        W10481  14.657  14.514   0.236  0.4356 -0.1743  0.0277
 6884W        W10482   8.931  15.526   9.008  0.1918  0.0753 -0.1436
 6885W        W10483  13.835  11.482   5.447  0.1487 -0.0318  0.2610
 6886W        W10484   2.193   4.871   8.824 -0.1505  0.1885 -0.0922
 6887W        W10485   8.904   8.086   9.538 -0.0055 -0.0941  0.2706
 6888W        W10486   5.391   8.505   0.477 -0.1215 -0.5357 -0.2334
 6889W        W10487   0.494   6.829   3.471 -0.1623  0.0796 -0.0262
 6890W        W10488  11.275   4.399   7.954 -0.1049  0.1823 -0.0038
 6891W        W10489   3.473  11.867  11.814  0.1409 -0.2313 -0.1489
 6892W        W10490   2.479   4.245   2.911  0.1195  0.1523  0.1066
 6893W        W10491   7.294   0.051  12.260  0.3927  0.4175 -0.0429
 6894W        W10492  15.832   3.435   4.761  0.0169 -0.3516 -0.1284
 6895W        W10493   0.227   8.857   6.228  0.0242  0.3294 -0.1550
 6896W        W10494   2.192   8.667  13.660 -0.0997  0.0301 -0.3876
 6897W        W10495  12.150   9.021   0.050  0.0188  0.1368  0.1594
 6898W        W10496   1.045   3.444   9.829  0.1575 -0.2639 -0.1332
 6899W        W10497  16.079   6.036   3.787  0.2104 -0.0055 -0.0080
 6900W        W10498   1.991   0.718   3.120 -0.0298 -0.5812 -0.1569
 6901W        W10499   2.832   6.830  12.591  0.0879 -0.3559  0.2037
 6902W        W10500   3.354  10.335   0.096  0.1790  0.1353 -0.0259
 6903W        W10501   4.789   7.290  12.906  0.0891 -0.1426 -0.0015
 6904W        W10502   8.671   6.384  13.511  0.0022  0.0832  0.0346
 6905W        W10503   1.378   8.935   8.089 -0.3683  0.0332  0.3049
 6906W        W10504  12.981   8.406  14.948 -0.1691  0.2187  0.1382
 6907W        W10505   0.914  15.393   7.265 -0.0269 -0.3571  0.0882
 6908W        W10506   8.535   4.676  13.277  0.1002  0.1303 -0.0659
 6909W        W10507   8.045   1.282   1.683  0.2315 -0.1986  0.0427
 6910W        W10508   0.234   4.981  13.678 -0.0900 -0.1007  0.0387
 6911W        W10509  13.278   3.892  13.532 -0.1413 -0.1705 -0.1482
 6912W        W10510   9.783  16.292  14.971 -0.1161  0.0056 -0.1371
 6913W        W10511   2.452   0.473   6.277  0.2770  0.0243  0.2552
 6914W        W10512   3.907  12.118   4.635 -0.1388  0.1676  0.2104
 6915W        W10513  16.269  12.828   1.731  0.3474  0.1129  0.0110
 6916W        W10514   3.349   3.784   3.855 -0.0348 -0.0334  0.0104
 6917W        W10515   6.802   6.861   6.221 -0.0719  0.0813 -0.1424
 6918W        W10516   6.338   6.742  13.869  0.1709  0.3962  0.2016
 6919W        W10517  12.073   8.563   2.328 -0.1867 -0.0720 -0.2523
 6920W        W10518   0.975  10.534   4.543 -0.1163  0.1834 -0.1413
 6921W        W10519  12.613   6.707  11.966 -0.1249 -0.2274  0.3845
 6922W        W10520  10.233   0.662   7.622 -0.1336  0.1230 -0.3848
 6923W        W10521  11.322  15.506  10.261  0.4382 -0.0239 -0.1484
 6924W        W10522  12.744   1.697  10.857 -0.0459  0.0894 -0.2259
 6925W        W10523   3.952   6.533  11.106 -0.0674  0.2098 -0.4309
 6926W        W10524   4.903   8.556  12.450  0.1574 -0.0273 -0.0470
 6927W        W10525  16.132   1.126  15.237 -0.4504  0.1122 -0.2553
 6928W        W10526   7.914   1.200   7.620 -0.3489 -0.2656 -0.4388
 6929W        W10527  16.155   7.738  11.339  0.0802 -0.2496  0.0530
 6930W        W10528   8.199  15.002   4.554  0.1401  0.0908 -0.1697
 6931W        W10529  10.543   4.230   0.892 -0.1689 -0.2546  0.0917
 6932W        W10530  15.509  14.221   5.274  0.0927 -0.1114 -0.3326
 6933W        W10531   2.008  11.497  14.689  0.0861  0.1770 -0.1824
 6934W        W10532   0.287  12.163   2.251  0.1266  0.1286  0.0894
 6935W        W10533  16.318   2.604   1.030  0.0593  0.2438 -0.2593
 6936W        W10534  10.067   1.284   4.145  0.0716 -0.0954 -0.0369
 6937W        W10535   8.358   4.874  11.156  0.0478  0.0062 -0.0620
 6938W        W10536   0.436  13.916   7.300  0.0325  0.1977 -0.0495
 6939W        W10537   1.509   3.599   7.156  0.0863  0.0392  0.0855
 6940W        W10538  10.873  13.133   6.090  0.3340 -0.0488 -0.3996
 6941W        W10539   1.508   7.401   9.894  0.0797 -0.1329 -0.1013
 6942W        W10540   7.829  16.135  14.215 -0.0951 -0.1300 -0.1615
 6943W        W10541  14.594   5.174   7.788 -0.0687 -0.0796 -0.0815
 6944W        W10542  14.422   9.132   3.610 -0.3140 -0.4233  0.0853
 6945W        W10543  14.656   9.912  12.546 -0.0852  0.0668 -0.2550
 6946W        W10544   7.033  12.948   6.270 -0.2362  0.4535  0.1450
 6947W        W10545   0.781   3.062   4.515  0.1146  0.1326 -0.2952
 6948W        W10546  10.592  14.142   7.033  0.1536  0.0569 -0.0748
 6949W        W10547   5.561   3.864   7.481 -0.0681  0.3472  0.0762
 6950W        W10548  15.641  10.069  15.025  0.1541  0.0448  0.1166
 6951W        W10549  16.191   4.427   7.094 -0.2878  0.1374  0.1558
 6952W        W10550   5.055   6.342   6.910 -0.0615  0.0289 -0.0309
 6953W        W10551  13.475  10.590   9.229  0.0074 -0.2418 -0.0996
 6954W        W10552   5.856   1.835   2.436  0.0053 -0.0441 -0.0930
 6955W        W10553   1.420  14.305   2.590  0.1678 -0.0563 -0.2358
 6956W        W10554  13.514  12.599  10.682 -0.1337 -0.2518  0.3485
 6957W        W10555   4.425   7.187   5.133 -0.2359 -0.2556  0.1579
 6958W        W10556   3.131  15.541   7.757 -0.1193 -0.0641 -0.1518
 6959W        W10557   8.562  15.418   6.366 -0.1899 -0.1078  0.2152
 6960W        W10558   5.745  11.328   6.717 -0.0389  0.0508 -0.1963
 6961W        W10559   4.280   9.080   0.117 -0.3075  0.0930 -0.1905
 6962W        W10560   2.376  15.209  13.042  0.0905  0.0226 -0.1665
 6963W        W10561   2.168   5.534  13.122 -0.2071 -0.0338 -0.0501
 6964W        W10562   3.570   9.397  12.459  0.1666  0.1298  0.2731
 6965W        W10563   0.218  16.174  12.349 -0.0147  0.0928  0.1225
 6966W        W10564   3.820  11.822  12.631 -0.1904 -0.3419  0.2771
 6967W        W10565   8.860  10.225   7.553  0.1055 -0.3234  0.0806
 6968W        W10566   8.091  10.409  10.561  0.1024  0.2296 -0.0952
 6969W        W10567  15.205   4.848   2.690  0.0218 -0.3026  0.1396
 6970W        W10568   2.581   2.542   3.691 -0.0755  0.2051 -0.1088
 6971W        W10569   8.577  12.558   0.313  0.0615  0.3833 -0.1076
 6972W        W10570   0.190   7.753   6.200  0.3893 -0.0187  0.2622
 6973W        W10571   9.278  10.169   7.917  0.0725  0.0459  0.1192
 6974W        W10572   0.483   6.836  12.787 -0.1422  0.0826  0.3001
 6975W        W10573  12.306  16.085  16.232 -0.4449 -0.0258 -0.0423
 6976W        W10574   8.802   1.453  10.329  0.2295 -0.1185  0.0128
 6977W        W10575  16.146   1.482   5.923 -0.0733 -0.5183 -0.0025
 6978W        W10576   5.164   9.124   3.486  0.1285 -0.0694  0.1858
 6979W        W10577   0.406  14.522  10.701  0.4153 -0.3196  0.1073
 6980W        W10578   7.923  14.313  11.832  0.3233 -0.3068  0.1532
 6981W        W10579  13.616   8.714   1.737 -0.1350  0.1787 -0.1265
 6982W        W10580   5.814  15.024  14.747 -0.2772 -0.0681  0.1041
 6983W        W10581  15.322  13.112   2.042 -0.0299  0.1376 -0.1777
 6984W        W10582  15.620   0.873  10.529  0.0599 -0.0129  0.1622
 6985W        W10583  11.961  16.257  14.342  0.2249 -0.1760  0.0951
 6986W        W10584  10.664   7.083   0.083  0.2029  0.2695 -0.0164
 6987W        W10585   4.190   0.159   4.481 -0.3510 -0.1260  0.1103
 6988W        W10586   6.806  14.474   8.373  0.3233 -0.0291 -0.1460
 6989W        W10587  11.542   3.042   9.576  0.1127  0.0976  0.0803
 6990W        W10588   1.256   5.291   1.475  0.0238 -0.2336  0.0388
 6991W        W10589   3.897   6.771   2.606 -0.0527 -0.1078  0.0750
 6992W        W10590   0.865   1.536   1.195 -0.0755  0.0816 -0.0857
 6993W        W10591   5.030   6.921  15.585 -0.1214  0.0513  0.0744
 6994W        W10592   4.153   9.412  13.650 -0.1182  0.2289  0.1524
 6995W        W10593  15.656  12.503   8.280 -0.1914 -0.0790 -0.1794
 6996W        W10594   6.050  15.488   3.085  0.1705 -0.1544  0.0560
 6997W        W10595   2.575  11.996   5.699  0.1533  0.0076 -0.0754
 6998W        W10596  10.010  11.309  13.123 -0.0485 -0.0967  0.2253
 6999W        W10597  15.747   2.915  14.892  0.2868  0.0330  0.0738
 7000W        W10598   8.818  12.046  14.355  0.0882  0.1485 -0.2558
 7001W        W10599   2.686  13.047   9.183  0.0003 -0.3339  0.2782
 7002W        W10600  15.677   3.668  14.049 -0.2077 -0.3629  0.0225
 7003W        W10601  10.077  10.837   2.602 -0.0378 -0.0835  0.4535
 7004W        W10602  15.394   4.190  13.974  0.1515 -0.0859 -0.0423
 7005W        W10603   2.611   0.616   7.399 -0.4089 -0.1139  0.0636
 7006W        W10604   0.121   0.544   2.132  0.1501 -0.0898  0.1121
 7007W        W10605   1.883   0.945   2.447 -0.0433 -0.0070  0.1175
 7008W        W10606  10.601  10.369   6.118  0.3636  0.0602  0.0071
 7009W        W10607  11.035  10.461  12.537  0.2697  0.2251 -0.3498
 7010W        W10608  16.012  14.641  10.293 -0.1100 -0.3708 -0.2136
 7011W        W10609   0.796   7.492  11.363 -0.0617  0.0765  0.0895
 7012W        W10610   8.663  13.764   5.091  0.0792  0.0065 -0.1381
 7013W        W10611  15.186   0.090  12.491  0.1863 -0.1740 -0.1250
 7014W        W10612  10.723   0.503   3.441  0.0009  0.4512  0.0986
 7015W        W10613  14.957  10.379   6.185 -0.0998  0.3505 -0.1176
 7016W        W10614   8.477   1.017   7.380  0.1124  0.0649 -0.0087
 7017W        W10615   4.106   6.580  13.126  0.0858  0.3000 -0.0039
 7018W        W10616  13.435   2.918   6.994  0.0244  0.1394 -0.2151
 7019W        W10617   7.810  13.863  11.537  0.0482 -0.1257 -0.1501
 7020W        W10618   3.261  12.427   0.559  0.2238  0.0110  0.1056
 7021W        W10619   8.509   7.787  15.186  0.0511  0.1002 -0.0990
 7022W        W10620   6.593  13.475   6.887  0.2997  0.4253 -0.1189
 7023W        W10621   0.778  16.264  11.445 -0.2123 -0.0659  0.0812
 7024W        W10622  13.463  15.852  11.951  0.0046 -0.0540  0.0904
 7025W        W10623  14.617   2.884   4.649  0.1992 -0.0437 -0.0165
 7026W        W10624  12.828   0.823   7.608  0.2319 -0.2634  0.0584
 7027W        W10625  10.624  16.096  14.256 -0.0966  0.0351 -0.0971
 7028W        W10626  10.057   8.599   3.422  0.0728 -0.3212  0.1002
 7029W        W10627  12.763  10.114   9.727  0.0955  0.1766  0.1770
 7030W        W10628   7.894   3.068  12.934  0.0768  0.0834  0.0844
 7031W        W10629  14.694  15.193  11.392  0.0258  0.1636 -0.0375
 7032W        W10630  11.165  10.540   6.610  0.1021  0.1472 -0.0721
 7033W        W10631   8.244   2.558  12.418 -0.1512 -0.0578  0.0593
 7034W        W10632  11.227  15.346  11.788 -0.0194 -0.1070  0.0672
 7035W        W10633   3.875   7.352  13.667  0.0448  0.0188 -0.0676
 7036W        W10634   7.914  11.794  14.073 -0.0776 -0.3562 -0.1186
 7037W        W10635   3.094  12.550   6.623 -0.0515 -0.0158  0.0534
 7038W        W10636  13.474  12.518   4.006 -0.0784  0.1535 -0.0865
 7039W        W10637  12.968  11.129   6.370 -0.0481  0.1394 -0.0193
 7040W        W10638   0.813  12.273   5.314  0.0101 -0.0175  0.1017
 7041W        W10639   0.955  13.099   2.896  0.1824 -0.1456 -0.1650
 7042W        W10640   1.008   7.630  14.387  0.2459  0.0199 -0.0426
 7043W        W10641   7.376   1.996  11.837  0.4113 -0.0450 -0.1992
 7044W        W10642  12.643   4.609   5.597 -0.0673  0.0518 -0.0693
 7045W        W10643   1.211   6.355   2.975  0.2144 -0.0485  0.0035
 7046W        W10644   5.341   4.548  15.784  0.0695  0.0236 -0.2009
 7047W        W10645   7.299   7.735   9.157 -0.0516  0.1024 -0.2646
 7048W        W10646   1.393  10.708   4.752 -0.2360 -0.1473 -0.1021
 7049W        W10647   8.189   4.254   8.270 -0.0391  0.0299  0.0423
 7050W        W10648   4.650  14.849  10.564  0.0870 -0.1262  0.0772
 7051W        W10649   6.795   8.212   6.434 -0.0996 -0.1989  0.2090
 7052W        W10650   5.274   1.339  16.383  0.1730  0.0534  0.1564
 7053W        W10651  12.345   4.030   5.183 -0.0317  0.0639 -0.1201
 7054W        W10652   7.715   0.490   9.171  0.0172 -0.2537  0.3480
 7055W        W10653   5.595   7.885   1.625  0.0039  0.2138 -0.0331
 7056W        W10654  10.207   6.230   4.018  0.2270 -0.1615 -0.1929
 7057W        W10655  10.062  11.875   2.750  0.1478  0.1714  0.1870
 7058W        W10656   2.391   4.742  11.455 -0.3021  0.3593 -0.0249
 7059W        W10657   0.111  10.265   0.276  0.0451  0.2084 -0.3465
 7060W        W10658  10.042  12.349   8.847  0.0504  0.3407  0.0224
 7061W        W10659   5.686   6.859   5.375  0.0518  0.0347  0.0626
 7062W        W10660   7.688   3.702  14.616  0.0997  0.1605  0.3041
 7063W        W10661   8.503   1.043  12.225 -0.0084  0.0309 -0.1873
 7064W        W10662  11.190  11.402   6.616 -0.2698  0.0243 -0.1467
 7065W        W10663   1.737   0.857   5.120 -0.1313 -0.1267 -0.1339
 7066W        W10664  12.383   0.133   4.109 -0.0903  0.0437  0.0066
 7067W        W10665  14.211  12.530   6.156 -0.1522 -0.0214  0.0238
 7068W        W10666   5.656  14.405   4.544 -0.1001 -0.1480  0.0129
 7069W        W10667   4.897   6.681   0.059  0.2939 -0.2959  0.0603
 7070W        W10668   5.573  14.833   0.538 -0.3283  0.0938  0.1570
 7071W        W10669   8.649  13.660  11.345  0.1231 -0.2353  0.1561
 7072W        W10670   2.906  12.571  15.410 -0.3490 -0.2329 -0.1306
 7073W        W10671  10.172  13.893   8.882  0.0440  0.1988  0.1334
 7074W        W10672   9.132  12.285   5.137 -0.0321 -0.0934 -0.1561
 7075W        W10673  15.226  12.357   9.701 -0.1146  0.3023 -0.3074
 7076W        W10674  13.389   5.079   0.356 -0.2625  0.4556 -0.2045
 7077W        W10675   9.391   0.254  11.817 -0.4682  0.0273 -0.0164
 7078W        W10676   1.860  14.854   2.698 -0.2024 -0.1637  0.0192
 7079W        W10677  13.427   4.392  14.985  0.1091 -0.2923 -0.0306
 7080W        W10678  16.379   5.484  14.319 -0.1833 -0.1975 -0.1214
 7081W        W10679   1.930  15.897   4.617 -0.0511 -0.3672 -0.0683
 7082W        W10680  11.895   0.758   5.641  0.2839 -0.0781  0.0239
 7083W        W10681   1.815   9.415   1.593 -0.0915  0.1851 -0.1459
 7084W        W10682   7.755   3.820  10.743 -0.2030  0.1321 -0.1348
 7085W        W10683   9.336  13.121   1.993 -0.1087 -0.0484 -0.0638
 7086W        W10684   8.169  14.152  10.346  0.4491  0.3683  0.1466
 7087W        W10685   8.781   7.331  10.699 -0.1911  0.0120 -0.2379
 7088W        W10686   2.997  12.205  16.315  0.2023  0.0659 -0.1794
 7089W        W10687   6.184   4.957   6.943  0.1014 -0.0065 -0.1217
 7090W        W10688   6.322   2.226   9.858  0.1762 -0.3707  0.0629
 7091W        W10689   2.114   8.650  15.386  0.4408  0.2541  0.1708
 7092W        W10690  11.644  13.753   1.522 -0.0801  0.0370 -0.0885
 7093W        W10691  10.097   4.453   4.733 -0.0391  0.1008  0.3002
 7094W        W10692  16.165   2.887   0.465  0.2834  0.1541 -0.1781
 7095W        W10693  13.425  11.495   8.255  0.1488 -0.1150  0.0400
 7096W        W10694  15.019   3.371   6.660  0.0437 -0.0612 -0.0744
 7097W        W10695  12.476   4.508  13.529 -0.0760 -0.0550  0.3463
 7098W        W10696   9.061   5.212   1.272  0.3552  0.0344 -0.1255
 7099W        W10697   0.059   5.837   2.517 -0.3311 -0.0937 -0.1688
 7100W        W10698   5.426  11.120  11.879  0.0111  0.1233 -0.0593
 7101W        W10699  13.748   9.937  15.940 -0.0695  0.1292 -0.3076
 7102W        W10700   6.485  14.487  10.636 -0.0708  0.2244 -0.1348
 7103W        W10701  14.153   9.226  10.414  0.0195 -0.0238  0.0098
 7104W        W10702  12.428   4.146   1.009  0.1998  0.0745 -0.0836
 7105W        W10703   3.109   8.488   5.633  0.1570 -0.1075 -0.2042
 7106W        W10704  15.590  12.177   7.146  0.2202 -0.0172  0.1054
 7107W        W10705   8.479  11.700  13.170  0.2117  0.2109  0.2494
 7108W        W10706   2.516  11.567   4.746 -0.0744  0.0201 -0.0416
 7109W        W10707  16.326  15.833   1.683  0.0108  0.0440  0.3784
 7110W        W10708   8.163  10.616   7.811  0.0889  0.0930 -0.1483
 7111W        W10709  13.647   5.352  11.329 -0.0785 -0.2405 -0.1597
 7112W        W10710   2.077   2.634   2.365 -0.1548 -0.0977  0.3432
 7113W        W10711   2.680   4.710  15.158 -0.0445 -0.0481 -0.4881
 7114W        W10712   4.321   7.501   7.101  0.0167 -0.4109  0.1695
 7115W        W10713  12.180  12.264  13.305  0.1188  0.1190 -0.0103
 7116W        W10714   1.170   2.919   8.124 -0.3520  0.1047  0.0053
 7117W        W10715   4.112   5.959   5.395  0.1798 -0.1191  0.2493
 7118W        W10716   5.690  10.864   6.852  0.3088  0.4076 -0.0999
 7119W        W10717  13.524  12.602  14.622  0.0048 -0.0194  0.3718
 7120W        W10718  12.241  15.264  14.332 -0.0457 -0.0170  0.1459
 7121W        W10719  14.299   8.153   5.396  0.0774 -0.0803 -0.0656
 7122W        W10720   5.423   4.386   2.116  0.1318 -0.1008 -0.1627
 7123W        W10721   0.787  12.419   4.852  0.0941  0.5496  0.4439
 7124W        W10722   9.389   4.907  12.500  0.1520  0.1191  0.0412
 7125W        W10723   7.380   0.952  14.907  0.2340 -0.1201 -0.3104
 7126W        W10724  11.717  12.829   2.487  0.2091  0.0408 -0.2480
 7127W        W10725   0.852   6.812  10.877  0.1035  0.0483  0.0896
 7128W        W10726  13.459   2.238   8.991 -0.3830  0.0765  0.1211
 7129W        W10727  13.165   6.340   6.226 -0.1076  0.3375 -0.3917
 7130W        W10728   8.995  11.828  12.935 -0.3496  0.0697 -0.2967
 7131W        W10729   2.340   6.582  13.477  0.0999  0.2363  0.3816
 7132W        W10730  11.961   8.782  14.902 -0.0161  0.0342  0.1861
 7133W        W10731  10.835   9.903   9.218  0.3149 -0.0824 -0.2044
 7134W        W10732  11.610  10.979  11.652  0.1766  0.2762 -0.0384
 7135W        W10733   6.428  10.281  10.654  0.1995  0.4052 -0.0129
 7136W        W10734  12.951   6.939  10.891 -0.2456  0.1255  0.0847
 7137W        W10735   9.721   7.386  12.848  0.0299  0.2149  0.0062
 7138W        W10736   2.540   3.317  13.995 -0.1285 -0.0371 -0.1155
 7139W        W10737   3.066  16.191   5.182 -0.2625  0.0834  0.0930
 7140W        W10738   8.679  15.644  14.235 -0.0332 -0.1527  0.0700
 7141W        W10739  15.412   6.898   2.142  0.0220 -0.1770  0.2262
 7142W        W10740  14.030   9.552   2.184  0.0485  0.2144  0.0016
 7143W        W10741  12.350   2.864  11.673 -0.0398 -0.1633  0.1159
 7144W        W10742   2.180  14.088   6.004 -0.2734  0.0613 -0.0716
 7145W        W10743  12.925  12.238   6.866 -0.2195  0.2807 -0.0052
 7146W        W10744   0.696   2.669   0.425  0.1770 -0.3032  0.2343
 7147W        W10745  15.225   7.711   5.311 -0.2035 -0.0735 -0.0171
 7148W        W10746  15.067   7.696   1.355 -0.0586  0.2917 -0.0173
 7149W        W10747   3.688   9.164  11.273 -0.3418 -0.0524  0.0864
 7150W        W10748   1.017  16.249   3.412 -0.2327 -0.1293  0.0836
 7151W        W10749   3.774   1.567   2.012  0.2354 -0.2032  0.0034
 7152W        W10750   1.758  10.212   9.297  0.2438  0.1704  0.0372
 7153W        W10751   9.328  11.922  11.738 -0.0202  0.0599 -0.3049
 7154W        W10752  12.554  15.766   5.913  0.0140 -0.0581 -0.3223
 7155W        W10753   1.002   7.776   5.780 -0.0057 -0.0389  0.2087
 7156W        W10754   0.267  16.060   3.123 -0.1230 -0.0426  0.2997
 7157W        W10755  10.066  15.776  15.492  0.0467  0.3693 -0.1641
 7158W        W10756  10.494   4.766  13.438  0.1334  0.1763 -0.0692
 7159W        W10757   2.288   4.169  10.352  0.3280  0.1130  0.1808
 7160W        W10758   0.779   1.182  13.083 -0.0224 -0.1488 -0.2615
 7161W        W10759   7.632   0.803   7.555 -0.1530  0.1698 -0.2651
 7162W        W10760   1.679  11.230   7.146  0.0767  0.0665 -0.0726
 7163W        W10761   3.956  13.287   5.883  0.2191 -0.3942 -0.1983
 7164W        W10762  13.086  14.405   6.386  0.0184  0.0340 -0.1204
 7165W        W10763  10.834   7.065  13.032  0.0729  0.0576  0.2387
 7166W        W10764   4.819   1.899  10.249 -0.1291 -0.0721 -0.0692
 7167W        W10765   7.555   4.484   7.607 -0.0892 -0.0056 -0.0962
 7168W        W10766  14.596   4.688  10.107  0.0304 -0.0787  0.0400
 7169W        W10767  16.130   7.118  15.970 -0.1544  0.1409 -0.2056
 7170W        W10768  10.959   8.051   3.038  0.1504 -0.1688  0.0613
 7171W        W10769   0.278  16.303   4.264  0.0778  0.1953  0.1433
 7172W        W10770  11.629  11.761   5.123  0.1606  0.0329  0.2220
 7173W        W10771  11.475  12.588   3.468 -0.3124 -0.1273  0.0807
 7174W        W10772   1.529   1.304  13.415  0.0259 -0.0813  0.0932
 7175W        W10773   6.528   5.218   9.744 -0.0915  0.0788 -0.1205
 7176W        W10774   8.639   6.414   1.308  0.1134  0.1813  0.0464
 7177W        W10775  10.169  11.865  15.818  0.0396  0.0935  0.1355
 7178W        W10776  14.142   3.937  13.838 -0.4282  0.0286  0.2991
 7179W        W10777  14.021   7.941   6.374 -0.1577 -0.2582  0.3511
 7180W        W10778   7.802  15.894   3.932  0.0076  0.3687  0.1255
 7181W        W10779   5.782  13.037   0.422 -0.0054  0.0368 -0.1118
 7182W        W10780   4.170   7.158   1.283  0.2716 -0.0750  0.0608
 7183W        W10781   7.572   8.753   0.026 -0.1875 -0.2107 -0.2631
 7184W        W10782   0.700  12.765   6.636 -0.1189 -0.3213  0.0509
 7185W        W10783  15.397   2.600   9.731  0.1656  0.1063 -0.0038
 7186W        W10784   6.373   3.920   7.704 -0.1530 -0.1090  0.2894
 7187W        W10785   5.296  12.241   0.656  0.1192 -0.1437 -0.2183
 7188W        W10786  13.819  10.908  12.314 -0.0078 -0.0675  0.0251
 7189W        W10787   9.301   7.677  14.794 -0.2237  0.1451 -0.2369
 7190W        W10788   9.514  10.568   1.329 -0.1423 -0.2562  0.2894
 7191W        W10789   2.683   5.048   4.818  0.1101  0.1099  0.0726
 7192W        W10790  16.167  12.434  10.889  0.1976 -0.0278  0.0451
 7193W        W10791   9.145   5.874   5.510 -0.1926 -0.0673 -0.0068
 7194W        W10792  12.817   6.351   4.904  0.2697 -0.3486 -0.1863
 7195W        W10793   1.220  13.952  11.698 -0.1263 -0.1716  0.1723
 7196W        W10794  15.997   1.582  15.171  0.2265 -0.2515  0.1466
 7197W        W10795   8.560  12.509   1.831 -0.2711 -0.0512  0.2506
 7198W        W10796   1.508  15.811  11.284 -0.1676  0.1237  0.2477
 7199W        W10797  16.389  14.196   5.028 -0.0641 -0.5867  0.1988
 7200W        W10798   8.904   9.624  15.475 -0.0529  0.2346  0.0678
 7201W        W10799   9.917  11.419   6.329  0.4490 -0.0728 -0.2169
 7202W        W10800   3.869   5.346   4.584 -0.2282  0.1725 -0.0779
 7203W        W10801  11.883  14.436  14.110 -0.2180 -0.0212 -0.3691
 7204W        W10802  11.074  12.649  11.195  0.2733  0.2602  0.2510
 7205W        W10803  13.480   0.351   8.566 -0.2068  0.1642 -0.2315
 7206W        W10804  15.973   6.863   0.454  0.1827 -0.1663  0.0575
 7207W        W10805   1.524   8.338   4.435  0.0370  0.2203 -0.0165
 7208W        W10806   5.312   7.022   1.393  0.0723  0.0197 -0.1701
 7209W        W10807   8.917   6.894  12.236 -0.0016  0.1520 -0.3528
 7210W        W10808   0.369   6.920   4.363 -0.0957  0.1206  0.1278
 7211W        W10809   2.300  12.149   4.675  0.2357 -0.0084 -0.3352
 7212W        W10810   0.162   6.369   5.434  0.1030  0.1474 -0.2701
 7213W        W10811   3.528  12.020  13.709 -0.0725  0.1450 -0.1689
 7214W        W10812   3.601  11.339   6.605  0.0969  0.0131  0.1658
 7215W        W10813   7.435  15.727   1.486  0.4399 -0.2482  0.3420
 7216W        W10814   6.150   6.888   7.212  0.0609  0.0548  0.1183
 7217W        W10815   2.984   0.977   7.422  0.2728 -0.0417 -0.0233
 7218W        W10816   6.098   3.676   8.532 -0.0879  0.0470  0.1152
 7219W        W10817   5.944   7.105   1.359 -0.0786 -0.2385  0.3119
 7220W        W10818   1.573   0.969   4.601  0.1551 -0.0057 -0.2633
 7221W        W10819   5.758   2.390   6.371 -0.3796 -0.2372  0.1237
 7222W        W10820   0.370   8.197  11.084 -0.0511  0.0933  0.1187
 7223W        W10821   5.505   1.201   1.969 -0.1133 -0.0835  0.0284
 7224W        W10822   5.041   8.382   5.069  0.2071 -0.2233 -0.2205
 7225W        W10823   1.328  11.249   6.027  0.2497  0.1405 -0.0343
 7226W        W10824  13.619   2.258  10.267 -0.1425 -0.0682  0.2499
 7227W        W10825  12.836  12.379  12.222  0.0198  0.0636  0.1282
 7228W        W10826   6.971   4.295   8.939 -0.0106  0.1252 -0.0555
 7229W        W10827   2.152  14.406   9.083 -0.2185  0.1912 -0.2260
 7230W        W10828  15.318  10.168  12.757  0.0080  0.1371 -0.0170
 7231W        W10829  15.943   7.256   4.020 -0.2255  0.1027  0.1675
 7232W        W10830  12.538   3.516  10.458 -0.3369  0.0376  0.0298
 7233W        W10831  12.249  10.175   0.400  0.0760  0.0814 -0.0140
 7234W        W10832  11.684  10.884   9.538 -0.1933 -0.2143  0.2874
 7235W        W10833  13.977   7.776   0.046 -0.0867 -0.1856 -0.2993
 7236W        W10834   9.949   3.001  14.577 -0.0038 -0.0578 -0.1095
 7237W        W10835   5.932   7.893  13.015  0.1718  0.2225  0.1111
 7238W        W10836  15.730  10.948   7.931  0.0417  0.3180 -0.2827
 7239W        W10837   2.688  14.602  13.221  0.1673  0.0654 -0.0429
 7240W        W10838   5.097   9.647   6.898 -0.1301 -0.1261 -0.1508
 7241W        W10839   3.464  10.878  14.445  0.1209  0.0019  0.3424
 7242W        W10840   8.960   0.088   2.712  0.0757 -0.2715 -0.0801
 7243W        W10841   9.827  15.921   6.020  0.1858  0.0587 -0.4058
 7244W        W10842  10.590  16.081   1.764 -0.0783  0.1709 -0.1539
 7245W        W10843   5.194  11.697   5.018  0.1506  0.1599 -0.0156
 7246W        W10844   7.537   2.924   7.803  0.2564 -0.1906  0.0628
 7247W        W10845   0.902  11.716   7.779 -0.1835 -0.1370  0.0915
 7248W        W10846  10.735  13.843   9.830  0.2032  0.0349  0.0910
 7249W        W10847   3.490   0.335   3.569 -0.1731  0.1843 -0.0024
 7250W        W10848   1.763  10.608   3.188 -0.2120  0.0835 -0.2127
 7251W        W10849   8.328   5.165   2.000 -0.1069  0.0179  0.1711
 7252W        W10850  13.595  13.088   3.790  0.0319 -0.1467  0.0347
 7253W        W10851   1.781   4.108  13.578  0.0706  0.0201  0.0123
 7254W        W10852   0.891  15.793   7.569  0.1418 -0.3099  0.0595
 7255W        W10853  11.442   7.450   1.448 -0.2487 -0.0046  0.0370
 7256W        W10854   0.575   1.355   6.934 -0.2788 -0.0663  0.2922
 7257W        W10855   4.110   9.719   2.482 -0.3801  0.1024 -0.0272
 7258W        W10856  11.984   3.303   5.612  0.1738  0.0077  0.1058
 7259W        W10857   0.172   9.178   6.569  0.1644 -0.1069 -0.0937
 7260W        W10858  12.416   7.902   4.156 -0.1749  0.1598 -0.1041
 7261W        W10859   9.050  13.430  10.559  0.0944  0.1162  0.1187
 7262W        W10860  12.170   1.289   4.362  0.0885 -0.1516 -0.3875
 7263W        W10861   8.831  13.131   6.641 -0.2287 -0.1017 -0.4333
 7264W        W10862   8.849  15.527   8.532 -0.2115 -0.1888  0.1301
 7265W        W10863  13.049   6.388   3.881  0.1321  0.0386 -0.2550
 7266W        W10864   8.386   1.685  10.563 -0.0644  0.3328  0.1272
 7267W        W10865  14.600   8.796  11.083 -0.1006 -0.0315  0.1067
 7268W        W10866   0.496   7.982   5.363  0.2776  0.1884  0.0987
 7269W        W10867  14.017   6.414  10.611 -0.1366  0.0699 -0.2918
 7270W        W10868  14.103  13.414  13.936 -0.0453  0.1185  0.1622
 7271W        W10869   5.029   9.847   0.029 -0.0725  0.1002  0.0327
 7272W        W10870   7.900   7.326   2.048 -0.0699 -0.1480 -0.3558
 7273W        W10871   3.665  10.346   0.999  0.2441  0.0002  0.3692
 7274W        W10872   6.641   7.210   6.579 -0.0351  0.0942 -0.1451
 7275W        W10873  10.684  10.477   4.110  0.0012 -0.2236 -0.0736
 7276W        W10874   5.993   2.243  14.871  0.4655  0.0629 -0.0789
 7277W        W10875   0.266   2.399   6.948 -0.0819 -0.1678 -0.3014
 7278W        W10876   4.674   9.274  10.839 -0.0320 -0.3171 -0.2154
 7279W        W10877   6.793   0.535  13.559  0.1487 -0.3927 -0.3913
 7280W        W10878   7.176  10.210   1.017 -0.1136 -0.1494  0.0436
 7281W        W10879   3.624   3.855   7.706  0.0444  0.1486  0.0191
 7282W        W10880   6.200  11.224   4.871 -0.2764  0.0552  0.1377
 7283W        W10881   6.335   6.021   7.483  0.1419  0.0893 -0.4246
 7284W        W10882   7.058   5.048   5.442 -0.1242 -0.1453 -0.1920
 7285W        W10883   3.129   7.045  15.034 -0.1863  0.2325 -0.1466
 7286W        W10884  13.962  11.309  14.484  0.2781  0.3097 -0.1026
 7287W        W10885   8.960  13.095   3.392  0.1197  0.1600  0.1076
 7288W        W10886   7.845  14.638  12.252  0.0090 -0.0261 -0.0410
 7289W        W10887  10.094   8.231  12.970  0.1756 -0.0680  0.1836
 7290W        W10888  13.064   0.861  12.245  0.0222 -0.2632 -0.1279
 7291W        W10889  13.601   5.999  16.356  0.3219  0.0448  0.1141
 7292W        W10890  14.496   8.317   9.921  0.4051 -0.0604 -0.1668
 7293W        W10891   8.932   0.791  15.721 -0.0951 -0.2134  0.1482
 7294W        W10892   8.056   8.843   1.362 -0.2611  0.1420  0.3568
 7295W        W10893  15.609   6.826   5.392  0.1024  0.0628 -0.3537
 7296W        W10894  11.399   2.322   4.140 -0.1401  0.0681  0.3248
 7297W        W10895  11.775  14.161   5.969  0.0433  0.1921  0.0792
 7298W        W10896   1.417  13.821  15.742  0.0834  0.0232 -0.0166
 7299W        W10897  12.066   4.502  11.752 -0.3148 -0.2383  0.0713
 7300W        W10898   9.498   0.824  11.901  0.0391 -0.1054  0.1671
 7301W        W10899   8.027   5.874   0.182  0.0256 -0.0427 -0.3301
 7302W        W10900   1.850  12.491  13.575 -0.1845 -0.1372 -0.1777
 7303W        W10901   8.795   2.956   2.632 -0.2017  0.0526  0.2562
 7304W        W10902   2.688  14.831   4.586  0.0108 -0.3148  0.3085
 7305W        W10903  10.912  10.471   1.315  0.1962 -0.0898 -0.4953
 7306W        W10904   9.422   4.126  14.215 -0.0508 -0.1553 -0.0889
 7307W        W10905   7.276   8.178   9.428  0.2172 -0.2011 -0.0814
 7308W        W10906  11.892   5.677   9.340 -0.2275 -0.0580 -0.2049
 7309W        W10907   9.535   1.788   9.499 -0.2071  0.4062  0.2785
 7310W        W10908   1.525   5.747   1.317  0.1167  0.0397 -0.2665
 7311W        W10909   0.802  14.671  10.979 -0.2485  0.2018 -0.2598
 7312W        W10910   7.901   3.283  13.934 -0.2511 -0.0160  0.2222
 7313W        W10911   6.149  12.780   7.349  0.2196 -0.3039  0.1314
 7314W        W10912   2.028  13.380  13.907  0.0449  0.1936 -0.2754
 7315W        W10913   3.683  12.182   3.188  0.0464 -0.0633 -0.2315
 7316W        W10914  10.754   5.297  14.640  0.1330  0.2443  0.0367
 7317W        W10915   2.518   8.315   4.995 -0.0743  0.1174  0.0320
 7318W        W10916   2.022   1.719   2.182 -0.0401  0.1430 -0.1675
 7319W        W10917  11.724  14.163  10.866 -0.0672  0.2179 -0.0196
 7320W        W10918   7.536  15.380   3.167  0.1365 -0.0334 -0.0868
 7321W        W10919  12.403  11.662   2.256  0.0386 -0.0962 -0.0265
 7322W        W10920  14.239   1.362   2.719 -0.3820  0.1428  0.0518
 7323W        W10921  15.029  10.656   4.724 -0.1639  0.1925 -0.0189
 7324W        W10922   6.437   8.849   1.806  0.1849 -0.1216 -0.1969
 7325W        W10923   4.587  12.819   6.687 -0.0326  0.2371  0.4845
 7326W        W10924  16.114   5.473   2.323  0.2430 -0.0365  0.1031
 7327W        W10925  12.889  11.030   5.468  0.0915 -0.2507 -0.2014
 7328W        W10926   6.882  14.521  14.903 -0.0603  0.1983 -0.0089
 7329W        W10927   7.542   4.313   3.820  0.2189 -0.1088  0.3728
 7330W        W10928   9.932   9.199   1.212  0.0385  0.2104 -0.1840
 7331W        W10929  13.097  14.934   2.660 -0.0604 -0.1725  0.0947
 7332W        W10930   0.586  16.344  13.705  0.3272 -0.1135  0.0035
 7333W        W10931   8.625   4.955  14.104 -0.1393 -0.0179 -0.1210
 7334W        W10932   5.469   3.506   7.854  0.0316  0.2202 -0.1091
 7335W        W10933   9.972  10.171  15.341  0.0390 -0.1924  0.2910
 7336W        W10934  10.623  13.161   9.105 -0.0751 -0.1449 -0.0821
 7337W        W10935  16.201   5.475   8.827  0.1664 -0.0669 -0.0308
 7338W        W10936  10.967  12.710  15.477 -0.1145 -0.1125  0.0472
 7339W        W10937   1.492  15.463   3.388  0.2098  0.2536 -0.2860
 7340W        W10938   8.884  12.020   2.327 -0.0627  0.1167 -0.0682
 7341W        W10939   9.494   2.419   5.756 -0.0573 -0.2184 -0.0116
 7342W        W10940   2.925  10.862  11.102 -0.1417 -0.0568  0.1115
 7343W        W10941  12.612  14.059  15.809  0.0722  0.1757  0.0183
 7344W        W10942  15.572   0.676  13.758  0.1569  0.2125 -0.0559
 7345W        W10943   4.607  15.130  13.295  0.3820 -0.1389 -0.1338
 7346W        W10944   3.812   2.189  11.802 -0.2727  0.2771  0.1427
 7347W        W10945   5.540  10.256  12.610  0.1564 -0.0027 -0.2895
 7348W        W10946   3.583   5.580  12.099  0.2012 -0.1433  0.3590
 7349W        W10947   2.313  12.485  12.212  0.0271 -0.3866 -0.0670
 7350W        W10948   2.106  14.252   3.905 -0.1633  0.0828 -0.0938
 7351W        W10949   4.030   3.983  11.810  0.0308 -0.3461 -0.1381
 7352W        W10950   3.272   8.339   8.256  0.1418 -0.0267  0.2401
 7353W        W10951  15.350   4.862  13.306 -0.1835  0.0707 -0.2314
 7354W        W10952   4.484  12.381  16.380 -0.1483  0.1321 -0.0090
 7355W        W10953   0.012  10.604  10.090 -0.0193  0.0646 -0.0216
 7356W        W10954  12.970  11.083   7.240 -0.3734  0.0221 -0.0878
 7357W        W10955   2.728   9.557  15.398  0.0492 -0.3067  0.1666
 7358W        W10956  14.711   0.585   2.911 -0.0811  0.1791 -0.0005
 7359W        W10957  15.179   7.602   3.622  0.2966 -0.2374  0.1141
 7360W        W10958  15.309   6.158   4.479 -0.1632 -0.0844  0.4604
 7361W        W10959  14.603   2.777  15.749  0.0601 -0.1327 -0.1463
 7362W        W10960   8.164   8.122   4.594  0.0044  0.0384  0.1494
 7363W        W10961   8.533   0.547   2.801  0.0685 -0.1977 -0.0588
 7364W        W10962  10.708   7.021  15.542  0.0973 -0.1055 -0.1450
 7365W        W10963   6.150  12.543  13.189 -0.2895  0.1912 -0.0283
 7366W        W10964   2.872  16.293   9.661 -0.1170 -0.0184 -0.0103
 7367W        W10965  15.380   2.847  15.740 -0.1546  0.1086  0.0749
 7368W        W10966   6.835  11.393   0.647 -0.0737 -0.1370  0.1040
 7369W        W10967  14.002   9.614  10.110 -0.1399 -0.1857  0.1821
 7370W        W10968  15.628   6.428   2.434 -0.1076  0.1107 -0.0982
 7371W        W10969   2.480   1.822   6.544 -0.1393 -0.1916 -0.1876
 7372W        W10970   4.294   7.506  15.361 -0.1295 -0.3994  0.1484
 7373W        W10971  13.351  12.814   9.193 -0.1081 -0.2361 -0.2179
 7374W        W10972  10.670  13.066   1.828  0.2000  0.0171  0.0153
 7375W        W10973  15.820   8.993  14.408  0.1265 -0.0665 -0.6162
 7376W        W10974   2.308   7.452  11.981 -0.1576  0.3000  0.3630
 7377W        W10975  14.657   3.833  14.706  0.0476 -0.0195 -0.1975
 7378W        W10976   0.686   2.427  13.429  0.1371  0.1960 -0.0252
 7379W        W10977   8.683   7.322  12.041  0.1850  0.1110  0.3075
 7380W        W10978   5.660   5.549  13.873 -0.3501  0.2191 -0.0315
 7381W        W10979   4.407  10.232   5.129  0.0268 -0.0393  0.1030
 7382W        W10980   2.628   6.151   5.975  0.1838 -0.0665 -0.1220
 7383W        W10981   3.470  11.304  14.158 -0.0563 -0.0599 -0.1082
 7384W        W10982  10.140  11.197  16.360 -0.1895 -0.3425 -0.1737
 7385W        W10983   1.480   1.029   1.063  0.1919 -0.0526 -0.1432
 7386W        W10984  15.952   7.728  10.844  0.2769 -0.1286 -0.1902
 7387W        W10985   7.791   9.173  13.679 -0.0309  0.1841  0.1494
 7388W        W10986   7.624   0.626  15.245  0.1410 -0.3285  0.1525
 7389W        W10987  13.245   9.414  11.584 -0.0034  0.0095 -0.0327
 7390W        W10988   5.874   5.170   8.419  0.1123  0.3060  0.0268
 7391W        W10989  12.534  15.352   5.679 -0.0265  0.0646 -0.0875
 7392W        W10990   1.136   8.492   5.877 -0.1641 -0.3303 -0.0267
 7393W        W10991  14.063  13.088   6.577  0.4178  0.2903  0.3210
 7394W        W10992  12.759   8.197   8.432  0.3204  0.2533  0.0495
 7395W        W10993   7.528   3.388   2.063  0.1014 -0.2006 -0.1555
 7396W        W10994   4.374   5.415   4.888  0.0391 -0.0093  0.2804
 7397W        W10995   8.701   6.801  13.115  0.1475  0.1495  0.0947
 7398W        W10996  15.157   5.802   7.335  0.0801 -0.0124  0.3551
 7399W        W10997  10.976   4.459   2.684  0.0415  0.0440  0.0740
 7400W        W10998   8.611  15.896   6.110  0.1375  0.0072  0.1100
 7401W        W10999  12.748  12.439  11.248 -0.0195  0.2235 -0.0180
 7402W        W11000   3.555   3.095   6.325  0.1964  0.0762  0.1812
 7403W        W11001   7.924   0.126  13.924  0.0099 -0.0876  0.0950
 7404W        W11002   0.461  11.224   1.794  0.2612 -0.0874  0.0092
 7405W        W11003  15.075  15.353   9.457 -0.1446  0.0548 -0.0443
 7406W        W11004   9.218  15.754  11.698 -0.1310 -0.1873 -0.6069
 7407W        W11005  11.443   5.964   2.144  0.0739 -0.1058 -0.1056
 7408W        W11006  12.177  15.435   3.285  0.1131  0.3686  0.0350
 7409W        W11007   1.536  13.288  15.647  0.0652  0.1459 -0.1372
 7410W        W11008   3.662   5.331   8.727 -0.0634  0.1397  0.1604
 7411W        W11009   5.930   6.488   7.375  0.0226 -0.0035  0.1199
 7412W        W11010   4.607   7.917  13.902 -0.0674  0.3435  0.1105
 7413W        W11011  14.862   6.234   2.403  0.4354 -0.1581  0.1673
 7414W        W11012  11.633   4.538  10.795 -0.2958  0.1164 -0.0317
 7415W        W11013   8.808   9.197   2.705 -0.0526 -0.2200 -0.1213
 7416W        W11014   8.068  10.900  12.516  0.1039 -0.0325 -0.4885
 7417W        W11015   2.556   1.469   7.824  0.1545  0.0777 -0.1917
 7418W        W11016  12.624   2.231  13.760 -0.0594 -0.1139  0.0677
 7419W        W11017  11.490  13.409   8.609  0.1036 -0.1787  0.1824
 7420W        W11018   1.107  10.612   2.255  0.0094  0.1396 -0.2455
 7421W        W11019   9.418  12.846   0.991 -0.0805  0.0159 -0.2118
 7422W        W11020   7.946   6.672   8.766  0.2960 -0.2752  0.2904
 7423W        W11021   0.854   5.155   0.169  0.1629  0.0948  0.0158
 7424W        W11022  11.407   0.853  10.494 -0.0651  0.1722 -0.0204
 7425W        W11023   7.786  15.943   5.047 -0.0143  0.0104  0.0523
 7426W        W11024  12.515  12.679  10.901 -0.0354  0.0955 -0.2105
 7427W        W11025   0.523   4.042  10.642  0.1765 -0.2181  0.0309
 7428W        W11026  12.414  15.551   7.606 -0.1312  0.0479 -0.0964
 7429W        W11027   8.238   1.014  13.456  0.0418  0.2658  0.2562
 7430W        W11028   4.744  12.718  10.122 -0.1240  0.0154 -0.2753
 7431W        W11029   0.495  14.499  11.356  0.0124 -0.3550 -0.5254
 7432W        W11030   8.178   1.220  16.149 -0.1270 -0.1630 -0.2265
 7433W        W11031   4.687   1.895   2.813 -0.2859 -0.0297  0.0629
 7434W        W11032  16.046   8.495   0.480 -0.0083 -0.2954  0.0898
 7435W        W11033  13.861  15.370   4.837  0.2705 -0.2603  0.0634
 7436W        W11034   1.031   1.934   2.008 -0.0001 -0.3181 -0.0198
 7437W        W11035   2.150   2.729   7.251  0.0497 -0.2133 -0.2648
 7438W        W11036   0.263   6.310   0.847 -0.2069 -0.1163  0.3132
 7439W        W11037  13.759   9.046  10.246  0.0414  0.0904  0.0796
 7440W        W11038   0.571  15.408  11.964  0.0248 -0.0887  0.0192
 7441W        W11039   3.785   9.432   2.763  0.1535  0.2821  0.1629
 7442W        W11040   1.716   1.567   1.780 -0.0003  0.4146 -0.2170
 7443W        W11041   1.392  15.459   9.364  0.0181 -0.0740  0.1988
 7444W        W11042  15.081   8.840   6.378  0.0684 -0.1652  0.0236
 7445W        W11043   5.836  14.951  12.528  0.0772  0.2673 -0.2103
 7446W        W11044   9.951  14.336   9.596  0.4432  0.0327 -0.1763
 7447W        W11045  15.516   8.346  12.043 -0.1244  0.0649 -0.2007
 7448W        W11046   0.804   0.032  15.794 -0.1589 -0.2869 -0.2954
 7449W        W11047   9.388   9.597   2.283  0.0828  0.3427  0.0388
 7450W        W11048  10.746   4.119   7.369  0.3542  0.1173  0.0863
 7451W        W11049  11.232   1.275  11.419 -0.0052  0.1043 -0.0246
 7452W        W11050   0.245   0.607  10.967  0.3168 -0.1968 -0.0652
 7453W        W11051   0.939  10.390   5.821 -0.1614 -0.3497  0.0557
 7454W        W11052   8.506   8.435  15.564 -0.0219  0.3801  0.1354
 7455W        W11053   3.428   6.507   4.294 -0.1031  0.3162  0.1460
 7456W        W11054  11.453  11.301  10.273  0.0795 -0.1737 -0.1297
 7457W        W11055  13.202  11.766  14.373  0.0466  0.0959  0.0836
 7458W        W11056  10.861   2.054   2.792 -0.4489 -0.2714  0.3198
 7459W        W11057   4.818  14.666   9.613  0.1337  0.2860 -0.1021
 7460W        W11058  14.951   9.991  15.524 -0.1288  0.0079 -0.0541
 7461W        W11059  11.073   7.767   7.428  0.1330  0.0770  0.1915
 7462W        W11060   1.406   5.480  11.833  0.1628  0.2432  0.1070
 7463W        W11061   8.017   7.652   0.735  0.0359 -0.0574  0.2236
 7464W        W11062   8.767  13.864  11.791  0.2387 -0.0451 -0.2022
 7465W        W11063  15.728   2.559   2.430  0.1337  0.1118 -0.4208
 7466W        W11064  11.158   5.582   3.298  0.1463  0.2507  0.0863
 7467W        W11065  11.731   0.907   6.539 -0.0014  0.3063  0.1237
 7468W        W11066   2.338  14.604  16.107  0.2139 -0.1597  0.0510
 7469W        W11067   9.462  12.536   9.598 -0.3434  0.0245  0.0282
 7470W        W11068   2.012   4.239   2.282 -0.0389 -0.1264  0.1534
 7471W        W11069  10.958   0.246   9.286  0.1634  0.0018  0.2717
 7472W        W11070   5.818   6.975  13.069  0.0269  0.0007 -0.2626
 7473W        W11071   6.438  13.847   4.960  0.2735 -0.1740 -0.1458
 7474W        W11072   4.754   4.832   8.126  0.0053 -0.1688  0.2282
 7475W        W11073   8.415  15.007   6.013  0.2210 -0.2732 -0.0244
 7476W        W11074   5.816   1.248  12.344 -0.2015 -0.2666  0.1734
 7477W        W11075  11.026   2.632  11.829 -0.0622  0.0966  0.4117
 7478W        W11076   2.132  10.072   5.305 -0.1829  0.0149  0.1020
 7479W        W11077   4.691   2.878  15.481 -0.3543 -0.2301  0.1224
 7480W        W11078  13.047  15.117   7.494  0.1381  0.0616  0.4945
 7481W        W11079  12.330   9.462  10.222 -0.0497 -0.3310 -0.3236
 7482W        W11080   3.513  11.158   3.426 -0.0605 -0.0739 -0.2366
 7483W        W11081  15.467  15.515   9.700 -0.0149  0.2259  0.0681
 7484W        W11082   0.245   3.718  14.230  0.0339  0.1837 -0.0726
 7485W        W11083   6.768   2.626  11.021 -0.1122 -0.0960 -0.0605
 7486W        W11084   8.899   2.910  15.793  0.2400  0.0824 -0.0605
 7487W        W11085   2.029  15.409   2.532  0.1118  0.1035  0.0568
 7488W        W11086   9.850   4.861   6.583  0.0597  0.3056 -0.1057
 7489W        W11087  12.324  11.924   6.269  0.0787 -0.1277  0.2857
 7490W        W11088   7.390  12.176   2.078  0.2785  0.1560 -0.0679
 7491W        W11089   6.344  11.763   4.975  0.1002  0.0749 -0.0019
 7492W        W11090   5.559   3.743   8.786  0.1380  0.2130  0.0225
 7493W        W11091  10.240  12.557   1.753 -0.1974  0.4036  0.1582
 7494W        W11092   9.803  12.706  14.668  0.1539 -0.2046 -0.0500
 7495W        W11093   3.414  12.988   7.923 -0.2475  0.4700  0.0711
 7496W        W11094  14.558   7.693  10.462  0.0253  0.1361 -0.0885
 7497W        W11095   5.415   1.362   0.672 -0.1225  0.0312 -0.3715
 7498W        W11096   0.552   6.112   6.947  0.3964  0.1172 -0.0320
 7499W        W11097   5.624  10.723  16.002  0.0017  0.2155 -0.1571
 7500W        W11098   3.393  15.511   0.667 -0.0897  0.0582 -0.0906
 7501W        W11099   5.162   0.626  14.158  0.0645  0.0671 -0.0640
 7502W        W11100  11.825   3.568   6.019 -0.1507  0.1448  0.1938
 7503W        W11101   1.169   3.777  14.168  0.0821  0.2353  0.0275
 7504W        W11102   9.841  12.440   3.600 -0.1609  0.0288  0.0811
 7505W        W11103  15.341  13.858  15.779 -0.2560 -0.3016  0.0590
 7506W        W11104   4.332   4.723   5.540  0.1173  0.0989 -0.1281
 7507W        W11105   3.688  15.291  11.985  0.1137  0.1230 -0.0359
 7508W        W11106  13.235  13.669   2.653 -0.2578 -0.1156  0.1805
 7509W        W11107   2.790  13.964   3.324  0.1257  0.2801  0.0116
 7510W        W11108   0.468   2.222   0.512  0.1046  0.0012  0.1470
 7511W        W11109   0.816  13.350  14.653  0.0267 -0.0602 -0.1129
 7512W        W11110  11.706  16.315   4.845  0.0417 -0.0523  0.1098
 7513W        W11111   3.592   3.283   2.404 -0.0619  0.4888  0.1218
 7514W        W11112   7.763   1.983   8.332 -0.3029  0.0890  0.0625
 7515W        W11113  15.395   7.611   0.505 -0.1645  0.0884 -0.3187
 7516W        W11114  16.033   4.475  12.510  0.2380  0.2176  0.0342
 7517W        W11115   3.580   6.296   1.892  0.0654 -0.0541  0.2677
 7518W        W11116   7.862   8.544   3.157 -0.0778  0.0613 -0.0203
 7519W        W11117   6.979  16.205  13.058  0.1132  0.0806  0.1517
 7520W        W11118   0.626  13.909   0.342 -0.2505 -0.0000  0.1900
 7521W        W11119   7.660   7.341  13.628  0.1421  0.2105 -0.1079
 7522W        W11120  10.231   9.575   3.875  0.0355  0.0099 -0.1414
 7523W        W11121   9.590   6.241   6.344 -0.2087  0.2324  0.0859
 7524W        W11122   8.080   5.629   4.739  0.0022  0.0147  0.2815
 7525W        W11123   6.800  12.438   1.006  0.4258  0.0661  0.1911
 7526W        W11124   3.435   7.833   4.163 -0.0846 -0.1348 -0.3949
 7527W        W11125   6.307  14.260   6.645  0.0070  0.2161  0.0435
 7528W        W11126  10.587  15.201   9.055 -0.1230 -0.0526 -0.0800
 7529W        W11127   9.678   9.601   1.108 -0.1544  0.0568  0.0830
 7530W        W11128   7.332  10.533  12.059  0.1285  0.0470 -0.0031
 7531W        W11129  15.072   8.361  14.696  0.3474  0.2304 -0.0050
 7532W        W11130   6.853  11.121  11.204  0.0093  0.1477 -0.3099
 7533W        W11131   0.418  10.693   6.256 -0.1719 -0.2656  0.0036
 7534W        W11132   5.690   7.960   7.643 -0.0986 -0.0639 -0.1103
 7535W        W11133   6.148   3.219   7.765 -0.0833  0.4257  0.0564
 7536W        W11134  12.040   7.278   3.221  0.2134  0.1490 -0.4289
 7537W        W11135   7.417  13.791   0.449  0.0984 -0.1929 -0.0494
 7538W        W11136   2.292   7.036   8.663 -0.0996  0.0272 -0.0173
 7539W        W11137  10.145   6.635   9.426  0.2924 -0.1226 -0.0358
 7540W        W11138  11.980  11.762   0.738 -0.1092 -0.0575 -0.1121
 7541W        W11139  11.977  11.800   3.583 -0.0485 -0.0690 -0.0221
 7542W        W11140  11.031  11.509  16.373 -0.1410 -0.1707 -0.3081
 7543W        W11141   9.197   7.417   2.944 -0.1312  0.2519 -0.0565
 7544W        W11142   7.220   6.292   1.352  0.0985  0.0147 -0.1278
 7545W        W11143   8.848   4.627   4.087  0.0073  0.2597 -0.0923
 7546W        W11144   7.216   5.618   2.566 -0.1591 -0.2497 -0.1346
 7547W        W11145   4.152   4.389   4.620 -0.0754  0.0797 -0.1704
 7548W        W11146   8.217  11.089   5.623 -0.0282  0.0652  0.0096
 7549W        W11147  15.349   6.990   4.376 -0.0123 -0.2884 -0.4031
 7550W        W11148   8.981  15.486   1.930  0.0302 -0.1227  0.0842
 7551W        W11149  10.812  12.485   3.344 -0.2930  0.1831  0.0698
 7552W        W11150   0.646  13.658  11.829 -0.4200  0.2169 -0.0084
 7553W        W11151  15.241   1.967  12.825  0.1604 -0.3340 -0.2642
 7554W        W11152  13.787   3.706  14.331  0.2028 -0.2098 -0.1947
 7555W        W11153   8.552   7.781  12.168 -0.1022 -0.0960 -0.2141
 7556W        W11154   0.256  11.767   1.251  0.2557  0.1436 -0.2169
 7557W        W11155   0.906  12.520   4.274  0.1795 -0.3396 -0.1370
 7558W        W11156  10.594  11.563   7.158 -0.0148  0.2351 -0.1622
 7559W        W11157   7.728   5.610   2.385  0.0389 -0.0593  0.3389
 7560W        W11158   2.239  14.460  15.596  0.3631  0.1449 -0.1626
 7561W        W11159  10.570  13.003   2.515 -0.1133 -0.2296  0.2485
 7562W        W11160   5.582   7.104  16.306 -0.1420 -0.1028 -0.1597
 7563W        W11161  15.329   1.026  14.052  0.2810 -0.0271 -0.0410
 7564W        W11162   1.066   2.179  12.601  0.0872 -0.3675  0.3078
 7565W        W11163   5.696  15.095   1.388 -0.0315  0.0511 -0.1955
 7566W        W11164  16.204  14.228   6.583 -0.0800 -0.1557 -0.0595
 7567W        W11165   1.417  10.069  11.205  0.3527 -0.3033 -0.1977
 7568W        W11166   0.895  10.518   3.171  0.2696 -0.1476  0.1021
 7569W        W11167  11.641   7.295  16.287  0.0752 -0.3169  0.1401
 7570W        W11168   7.313   6.710   6.269 -0.1454  0.1438 -0.0491
 7571W        W11169  13.169   1.144  12.697  0.1847  0.0960 -0.2007
 7572W        W11170  12.347   2.700   9.875 -0.0851 -0.1232  0.0792
 7573W        W11171   0.941   7.252  15.638  0.3513 -0.0913 -0.2249
 7574W        W11172  12.484  12.757  12.087 -0.1088 -0.0390 -0.2804
 7575W        W11173   3.348  11.857  10.316  0.0754 -0.2574 -0.0961
 7576W        W11174   4.732   1.094   1.694  0.0949 -0.0626  0.0626
 7577W        W11175   2.495  15.360   0.566  0.0897  0.1021 -0.0646
 7578W        W11176  15.044  12.608   9.295  0.2225 -0.2782 -0.0487
 7579W        W11177   1.594  11.352  14.265  0.2082  0.2119  0.1417
 7580W        W11178   7.266   9.799   3.319  0.4623  0.0900 -0.2528
 7581W        W11179  11.260   9.304   7.720 -0.0564  0.2410  0.0810
 7582W        W11180  11.567  13.308  10.293 -0.2088 -0.1417  0.0616
 7583W        W11181  15.920   8.750   7.395  0.0236 -0.1514  0.1205
 7584W        W11182   6.150   1.251   8.659 -0.0417  0.2140  0.1041
 7585W        W11183  11.137  15.156   8.362 -0.2750 -0.1189  0.0138
 7586W        W11184   1.014  15.697   0.144  0.1892 -0.1345 -0.1940
 7587W        W11185   7.446  14.937   3.402 -0.1686  0.2427 -0.1216
 7588W        W11186   7.413   3.033  13.215  0.1649  0.5032  0.0204
 7589W        W11187  11.328  15.982   8.588  0.0554  0.0860 -0.0772
 7590W        W11188   4.022   4.406  14.807  0.1599  0.0588 -0.1186
 7591W        W11189   5.903  14.871   7.372 -0.1652  0.2834 -0.1252
 7592W        W11190   6.586  10.022   1.605  0.2140 -0.1332 -0.0747
 7593W        W11191   1.559  10.620  14.339 -0.3299  0.1491  0.0273
 7594W        W11192  15.681   3.111   7.056  0.0461  0.0949 -0.1425
 7595W        W11193   4.289   6.853   2.304 -0.1157 -0.2456  0.1706
 7596W        W11194   0.380  14.612  16.117 -0.1993 -0.1905 -0.0125
 7597W        W11195   1.303  15.889   7.238 -0.2037 -0.2104  0.1127
 7598W        W11196  11.490  15.017   2.357  0.1002  0.0611 -0.1824
 7599W        W11197  15.641   5.720   2.432 -0.0988 -0.2274 -0.2363
 7600W        W11198   8.639   4.896   8.086 -0.0617  0.3994  0.0558
 7601W        W11199  12.617   4.513   1.855  0.1630  0.0644  0.0951
 7602W        W11200  12.331   7.107   8.083 -0.0240 -0.2367  0.1789
 7603W        W11201  14.452   0.525   0.999 -0.4441  0.1239 -0.1536
 7604W        W11202   2.579   1.505  13.641  0.0939 -0.1683 -0.0123
 7605W        W11203   4.326  11.498  10.145  0.0165 -0.2560 -0.0319
 7606W        W11204   2.932  14.727  12.832 -0.2805 -0.2666  0.0362
 7607W        W11205   7.832  12.922   7.179 -0.1244 -0.1184  0.2203
 7608W        W11206  13.511  11.801  10.853 -0.2001 -0.0404 -0.1352
 7609W        W11207   1.752   8.126   2.379 -0.0588  0.1352 -0.0908
 7610W        W11208   2.927  15.849  16.198  0.0946  0.1068 -0.1153
 7611W        W11209   8.712   6.559  15.669 -0.0925  0.1157 -0.1939
 7612W        W11210   8.154   3.549   9.976  0.1308  0.0372  0.1638
 7613W        W11211  10.816   1.832  14.810 -0.0671 -0.0615 -0.0307
 7614W        W11212   8.897   0.770   1.695 -0.1980  0.0060  0.0288
 7615W        W11213   7.028   5.365   7.800  0.0302 -0.0647 -0.2183
 7616W        W11214   6.099  14.720   8.434  0.1640 -0.0729 -0.0233
 7617W        W11215  11.178   4.500   1.406  0.2773  0.2946 -0.2991
 7618W        W11216   7.202   2.153   5.437 -0.0150 -0.1568  0.4067
 7619W        W11217  11.543  15.796   7.980  0.0532  0.0429 -0.2537
 7620W        W11218  15.901   1.389   3.089 -0.2067 -0.1854  0.0376
 7621W        W11219   7.631  15.588  12.595  0.1140 -0.1950 -0.0927
 7622W        W11220  13.928  14.382   2.366 -0.3359 -0.2433  0.0282
 7623W        W11221  15.368  13.447   7.003 -0.0857 -0.1038  0.1353
 7624W        W11222  13.342   3.081   1.375  0.3452  0.1341  0.0449
 7625W        W11223  12.726  15.205  12.687 -0.3338  0.4246  0.2149
 7626W        W11224  16.018   6.003  12.617  0.1310  0.0717 -0.3167
 7627W        W11225  14.456  11.464  14.096 -0.1298  0.0040 -0.0064
 7628W        W11226   1.688   6.667   1.157  0.1466  0.1262  0.1173
 7629W        W11227   9.047  13.505   2.236  0.2321  0.4471  0.1446
 7630W        W11228  13.580  13.144   9.504 -0.2126  0.2970 -0.0443
 7631W        W11229  14.462  12.752  11.344 -0.0339  0.3007  0.0550
 7632W        W11230   7.564   7.872   7.575 -0.0423 -0.1262 -0.1496
 7633W        W11231  10.628  15.402   7.498 -0.2112 -0.1890 -0.1106
 7634W        W11232  11.235  12.550  10.218 -0.2307  0.0453  0.1099
 7635W        W11233  12.590   0.070  12.604 -0.4540  0.0311 -0.2159
 7636W        W11234   1.250  13.489   3.003  0.2146 -0.1857  0.1754
 7637W        W11235  11.228  12.452   3.063 -0.0824 -0.1242 -0.0422
 7638W        W11236   1.319  12.106  14.826  0.4106 -0.4404 -0.2457
 7639W        W11237   1.057  16.284   7.316 -0.0707  0.0882  0.1627
 7640W        W11238   7.105   6.708   0.451 -0.1834  0.1018  0.3112
 7641W        W11239  12.117   3.132  10.086  0.1468  0.0058  0.0219
 7642W        W11240   8.738   7.637   1.926 -0.0390  0.1474 -0.0658
 7643W        W11241  11.047  15.465  16.084  0.1472 -0.0722  0.2064
 7644W        W11242  13.158   2.344  10.480  0.0600 -0.2212 -0.0786
 7645W        W11243  10.319  14.908  15.037 -0.0325  0.0559 -0.0431
 7646W        W11244  13.891   0.703  11.980 -0.0973  0.1088  0.0107
 7647W        W11245  10.969   4.617   0.953 -0.2571  0.0380  0.3258
 7648W        W11246   0.521   5.186   1.536  0.0700  0.0588  0.3057
 7649W        W11247  12.113  11.700  10.028 -0.1633 -0.0695  0.2804
 7650W        W11248   4.662  10.467  10.127 -0.0527  0.1075  0.0120
 7651W        W11249   3.382   6.444   5.432 -0.5011  0.1153 -0.0332
 7652W        W11250   2.081   8.589  16.257  0.1079  0.0238  0.1780
 7653W        W11251  15.346   8.525  15.070 -0.0470 -0.1676  0.1080
 7654W        W11252   6.390   0.741   1.916  0.0869 -0.0171  0.1795
 7655W        W11253  10.001   2.510   6.907  0.2582 -0.0479  0.3530
 7656W        W11254   4.039  12.795   2.366 -0.0854  0.0729  0.0128
 7657W        W11255   0.236   5.714   1.651 -0.2610 -0.0592 -0.0395
 7658W        W11256   9.123  12.002   9.122 -0.2727  0.2124  0.2264
 7659W        W11257   9.051   9.087  16.096 -0.1049  0.3714  0.0024
 7660W        W11258   4.727  11.577   1.056  0.2736  0.3305 -0.0270
 7661W        W11259   4.381   3.498  16.001  0.1006 -0.2034 -0.3687
 7662W        W11260   4.263   1.648  14.785  0.0926  0.0531 -0.0521
 7663W        W11261   9.098   3.574  13.433  0.0990  0.0651 -0.2380
 7664W        W11262   4.996  10.113   2.715 -0.0276 -0.1450 -0.3021
 7665W        W11263  11.484   3.746  13.830  0.0981  0.3945 -0.2268
 7666W        W11264  10.156   7.103   0.832 -0.1113 -0.1205 -0.2626
 7667W        W11265   8.491   6.194  14.856  0.0450 -0.1896 -0.0497
 7668W        W11266  12.109  11.481   2.642 -0.2642  0.0109 -0.0245
 7669W        W11267   9.201  14.657   3.224 -0.1336  0.0826  0.0742
 7670W        W11268  10.673   1.556  15.225  0.0267 -0.0164 -0.0883
 7671W        W11269   8.913   9.074   1.826  0.2116 -0.0359 -0.0729
 7672W        W11270  11.388   1.353  11.909 -0.2790  0.5128 -0.0127
 7673W        W11271   9.302   4.792  16.262  0.0375  0.1423 -0.0004
 7674W        W11272  16.129  15.281  14.204  0.0050 -0.1123  0.2306
 7675W        W11273  11.483   8.846   3.438  0.0479  0.4296 -0.0255
 7676W        W11274  11.596   5.210  10.300  0.0018  0.0226  0.2952
 7677W        W11275  10.835   8.851  11.143 -0.2754 -0.1373 -0.1889
 7678W        W11276   4.970  13.666   0.712  0.1069 -0.2250  0.1090
 7679W        W11277  13.640  16.093  16.367  0.2599 -0.1458  0.0625
 7680W        W11278  15.491   2.319  15.812  0.0802  0.0488 -0.1335
 7681W        W11279   7.759  10.391   3.790  0.0910 -0.1382 -0.2427
 7682W        W11280   1.583   0.160  12.674 -0.1050  0.1216  0.0364
 7683W        W11281   6.823  13.277   9.975  0.0023 -0.2258  0.1722
 7684W        W11282   8.799  10.901  15.626 -0.0322 -0.1642 -0.1294
 7685W        W11283   6.463  12.863  12.023  0.0500 -0.1643 -0.2644
 7686W        W11284  13.018  14.007   3.698  0.0485  0.3055 -0.3538
 7687W        W11285   4.761   6.743   5.883  0.0091 -0.3202 -0.1596
 7688W        W11286  14.236   6.049   0.593 -0.0456 -0.3149  0.0998
 7689W        W11287  10.690   2.544  10.061  0.2116 -0.2393  0.1007
 7690W        W11288   5.697  16.286   2.548  0.0374 -0.2272  0.0685
 7691W        W11289   4.261  13.640   4.356 -0.0090  0.1502  0.0013
 7692W        W11290  15.752   2.269   9.729  0.4214  0.1139 -0.2423
 7693W        W11291   5.883   7.768   1.994 -0.1449  0.0693  0.2139
 7694W        W11292  14.745  12.019   0.722  0.0302 -0.1257  0.0860
 7695W        W11293   1.629   5.294   6.453  0.0220  0.1677  0.2958
 7696W        W11294  11.595   7.992   5.094  0.0330  0.0017  0.2082
 7697W        W11295   1.394   0.164   0.192 -0.1569  0.0115 -0.1977
 7698W        W11296   3.273   2.891   2.487 -0.4034 -0.1296 -0.1452
 7699W        W11297  13.128  11.077   9.587  0.1355  0.0973 -0.1826
 7700W        W11298  12.132   7.706   7.394  0.1737 -0.1443  0.0728
 7701W        W11299   7.811   2.364  11.490 -0.1295  0.0346 -0.0304
 7702W        W11300   0.735  11.794  14.173 -0.0766 -0.2758 -0.0051
 7703W        W11301   7.054  15.830   4.571 -0.1316  0.1621  0.1620
 7704W        W11302  14.821   2.715  15.252 -0.0367  0.0032  0.1038
 7705W        W11303  15.818   8.256  12.491  0.0662  0.1441  0.2676
 7706W        W11304  10.920   6.439   6.276  0.0459  0.1246 -0.1870
 7707W        W11305   5.893  13.639  11.623 -0.0439 -0.1221 -0.3680
 7708W        W11306   3.614   8.422  12.114  0.1130 -0.3294 -0.1148
 7709W        W11307  12.979  10.829   0.955 -0.1062 -0.2262 -0.0815
 7710W        W11308   7.985   7.209   8.860 -0.2667  0.0690  0.2175
 7711W        W11309   3.039  15.073   8.751 -0.2007 -0.0041 -0.1312
 7712W        W11310   1.253   4.177  15.148  0.1974  0.3824  0.1256
 7713W        W11311   3.329   4.250   1.038 -0.0899  0.0177 -0.2135
 7714W        W11312   3.947  14.069   0.494 -0.0212 -0.1853  0.1053
 7715W        W11313   5.842   4.018  14.951  0.1731 -0.3486 -0.2886
 7716W        W11314   6.879  13.378  11.316 -0.1471 -0.0059 -0.1714
 7717W        W11315  10.822  10.016  15.783  0.0899  0.2893  0.1066
 7718W        W11316   0.934  10.519   1.042  0.2083  0.1322  0.1934
 7719W        W11317   4.213   4.340   5.810  0.3666 -0.0225 -0.2295
 7720W        W11318   3.848  16.216   4.627  0.3364 -0.1051 -0.0467
 7721W        W11319  13.288  11.610   1.704  0.1550  0.0793  0.1741
 7722W        W11320   9.686   1.342  10.068  0.0799 -0.1449  0.1156
 7723W        W11321   7.608   9.895   3.753  0.1020 -0.1699  0.2353
 7724W        W11322   0.424   6.145   2.448 -0.2127 -0.3368 -0.0245
 7725W        W11323   8.750  15.071   2.280 -0.0291 -0.0598 -0.1615
 7726W        W11324  12.367  14.033  10.851 -0.2023  0.1702 -0.3521
 7727W        W11325   4.797  12.801   6.234 -0.0474  0.0881  0.3750
 7728W        W11326   4.224   2.708  11.129  0.2139  0.1704  0.1398
 7729W        W11327   6.743   7.427   8.391  0.0409 -0.1090  0.1459
 7730W        W11328   6.088   5.266   8.909 -0.0735 -0.2317 -0.0143
 7731W        W11329  14.060   3.776   3.579 -0.1723  0.1528  0.2050
 7732W        W11330  10.228   8.817  11.164 -0.2291  0.1790  0.1669
 7733W        W11331   3.748  14.925  13.934  0.0206  0.1252 -0.3733
 7734W        W11332   5.190   3.776  15.130  0.0715 -0.0434 -0.1428
 7735W        W11333   6.745   8.479   1.198  0.1918  0.1188 -0.0538
 7736W        W11334   3.990   7.111  15.553  0.1180 -0.0582  0.1221
 7737W        W11335   8.160   6.911  15.665 -0.0085 -0.0772  0.0356
 7738W        W11336   0.312  10.143  16.079 -0.1983 -0.1818 -0.2094
 7739W        W11337  13.315   3.062  11.864 -0.0816 -0.1249  0.1555
 7740W        W11338  12.655   0.631  16.055 -0.0766 -0.1346 -0.0093
 7741W        W11339   9.587  13.437   6.017 -0.1844  0.2441  0.3661
 7742W        W11340  15.888  15.627   1.800 -0.0775  0.3095 -0.1766
 7743W        W11341  13.416  15.081  10.202  0.4036  0.0647  0.4126
 7744W        W11342   0.662   8.154   6.586  0.0836  0.0107  0.2024
 7745W        W11343   6.274   4.901  13.088 -0.3005  0.0355 -0.1266
 7746W        W11344  14.305   9.230  11.471  0.0836 -0.2000 -0.1982
 7747W        W11345   3.742   6.958  11.453  0.1166  0.2761  0.1356
 7748W        W11346   9.692   6.580  11.594  0.1573 -0.1412 -0.3406
 7749W        W11347  16.300   4.067   9.873  0.2388 -0.2958 -0.1060
 7750W        W11348  14.794  13.460   8.301 -0.1182  0.0479 -0.0558
 7751W        W11349   1.667   3.673   3.838 -0.0904 -0.3575 -0.2160
 7752W        W11350   3.526   7.276   4.934  0.0236  0.3271  0.0476
 7753W        W11351  13.617   1.514   8.290 -0.0512  0.0034  0.1528
 7754W        W11352  10.875   6.690   3.625  0.0446  0.1199 -0.1971
 7755W        W11353   7.533  14.803   7.891  0.0764 -0.0729  0.1861
 7756W        W11354   6.465  11.198   1.782  0.0028 -0.0069  0.0584
 7757W        W11355   0.790  13.020   4.274 -0.2295  0.1519 -0.0112
 7758W        W11356   6.268  12.109   5.400  0.0119  0.0067  0.2055
 7759W        W11357   5.243   3.189   3.459  0.0935  0.0731 -0.0461
 7760W        W11358   3.506  13.509  12.865  0.1920 -0.1472  0.0787
 7761W        W11359   1.135   4.230   7.284  0.1849 -0.0332 -0.0156
 7762W        W11360  10.585   3.603   7.368 -0.0153  0.2008  0.1206
 7763W        W11361   0.762   3.423   1.856  0.0391 -0.1036  0.1620
 7764W        W11362  12.170   0.513   8.490  0.2071 -0.3223 -0.4124
 7765W        W11363   6.695   0.495  14.671 -0.0610  0.3363 -0.0493
 7766W        W11364   0.251  10.662  16.353 -0.1773  0.1057 -0.0944
 7767W        W11365  10.082   5.936   5.228  0.0919  0.0954 -0.3381
 7768W        W11366  14.495   3.607   8.167 -0.2549  0.1568 -0.0130
 7769W        W11367  15.912  11.920   4.056  0.1758 -0.1896  0.2442
 7770W        W11368   7.646   0.716   8.735 -0.0776 -0.2753  0.1688
 7771W        W11369   0.941   5.584  12.695 -0.0889 -0.0117  0.1453
 7772W        W11370   4.183   4.204   5.362  0.1118  0.0959 -0.0378
 7773W        W11371   7.826   5.847  12.269 -0.3419  0.4472  0.0213
 7774W        W11372   1.836  11.270  15.106  0.0909  0.1423 -0.3045
 7775W        W11373   0.482  16.094   6.273  0.0382 -0.0671 -0.4512
 7776W        W11374   7.820   8.477   0.436  0.2878 -0.0501  0.1650
 7777W        W11375  16.360   9.468   7.932  0.0976 -0.0664  0.1624
 7778W        W11376   3.344   2.177   6.804 -0.0512  0.1225  0.0114
 7779W        W11377   3.990   3.714   0.320 -0.0579 -0.1451  0.1796
 7780W        W11378  16.219  10.006  12.900 -0.2305  0.1056 -0.0592
 7781W        W11379  11.273  11.512   6.048  0.2055  0.1071 -0.1607
 7782W        W11380   8.777   1.399  12.494  0.3909 -0.0698  0.0274
 7783W        W11381   7.170  13.100  13.056  0.0532  0.2202 -0.0156
 7784W        W11382   8.747   9.984   0.412  0.1619  0.1740 -0.0332
 7785W        W11383  11.601   3.893   5.689  0.2993 -0.3645 -0.2757
 7786W        W11384  16.002  15.681   5.515 -0.0209  0.0626  0.0558
 7787W        W11385  12.314   5.915   2.971  0.0350 -0.1568 -0.2972
 7788W        W11386  10.962   8.016  11.471 -0.3661 -0.0889  0.1822
 7789W        W11387  14.442   4.997   5.305 -0.0658  0.0357  0.2371
 7790W        W11388   8.035  10.830  14.589 -0.0287 -0.0196  0.1160
 7791W        W11389   9.078   9.622   2.668  0.2297 -0.4088 -0.1988
 7792W        W11390  15.101   4.633  16.199 -0.1210 -0.1853 -0.0060
 7793W        W11391   4.185   3.825   1.742  0.0050  0.0591 -0.2677
 7794W        W11392   0.959   4.081   9.196 -0.0214  0.1211 -0.4501
 7795W        W11393  11.411  10.930   8.273 -0.0117  0.1883  0.0467
 7796W        W11394  13.285   5.583  16.254 -0.0381 -0.1971  0.3636
 7797W        W11395   5.105  12.151  16.248 -0.0942  0.0057 -0.0434
 7798W        W11396  12.294  14.972  11.889  0.0470 -0.0270  0.2442
 7799W        W11397   8.594  12.324  10.684 -0.0314  0.1590  0.0825
 7800W        W11398  16.264   6.349   1.229  0.0536 -0.2479 -0.0344
 7801W        W11399   2.223  11.234   9.290  0.3103  0.0810 -0.2939
 7802W        W11400  14.126  14.880   8.333 -0.1236  0.1060  0.0212
 7803W        W11401   7.080   8.301   6.003 -0.3964  0.1761  0.1506
 7804W        W11402   5.054   2.342   2.725  0.0526  0.1790  0.0422
 7805W        W11403   4.493   6.426  13.961 -0.0077  0.0887 -0.1333
 7806W        W11404   9.289  13.540   4.126 -0.1333  0.2046  0.2057
 7807W        W11405  15.807  13.138   6.789 -0.2898 -0.0313  0.2823
 7808W        W11406   5.457   5.124   4.467 -0.0116  0.1817  0.1048
 7809W        W11407  15.523   1.135  13.066  0.2101  0.0527  0.0820
 7810W        W11408  10.431   8.572  13.169  0.0177  0.0571 -0.1304
 7811W        W11409  14.005   0.929   5.661  0.3009 -0.1379 -0.1830
 7812W        W11410   3.537   9.152   8.120 -0.0767 -0.3111 -0.2632
 7813W        W11411  13.252   0.150  13.040  0.1565 -0.1609  0.3402
 7814W        W11412  14.319  15.086   5.947 -0.1203 -0.1439 -0.1204
 7815W        W11413  16.084  16.217  14.004 -0.0433  0.1506  0.1967
 7816W        W11414   9.208  10.836   1.694 -0.1899 -0.0576  0.1079
 7817W        W11415  11.446  15.050   1.859 -0.2147  0.1756  0.2026
 7818W        W11416   0.593   5.148   5.301 -0.0320  0.1023 -0.2548
 7819W        W11417  14.452   1.263   2.242  0.0619 -0.1835  0.1408
 7820W        W11418   8.074   9.369   9.476  0.0561  0.0056  0.3778
 7821W        W11419  12.100  12.526   7.291 -0.1265 -0.0209  0.3395
 7822W        W11420  13.927  16.296  14.440 -0.5111 -0.2029  0.3121
 7823W        W11421   4.641   3.313   2.686 -0.0572  0.0842 -0.1152
 7824W        W11422  11.958  12.601   5.258 -0.2269 -0.0292  0.1808
 7825W        W11423   2.951   5.705   1.828  0.0331 -0.0889 -0.0781
 7826W        W11424   9.702   1.573  10.595  0.3831 -0.1674  0.1618
 7827W        W11425   0.271   4.346  15.428  0.0786 -0.1177 -0.0537
 7828W        W11426   4.349  10.164   1.140 -0.0478 -0.0248 -0.0271
 7829W        W11427   3.292  10.946  10.746  0.0203  0.2286 -0.1832
 7830W        W11428   0.335   1.692  14.211  0.0175 -0.1662 -0.0166
 7831W        W11429   4.068  14.552  12.075  0.2661  0.3848  0.1305
 7832W        W11430  14.282   4.186  13.050 -0.1229 -0.0640  0.1038
 7833W        W11431  11.716  14.017   2.567  0.1314  0.0478  0.1527
 7834W        W11432   1.991  15.541   3.522 -0.0301 -0.0171  0.0204
 7835W        W11433   4.068  16.240   3.104  0.0072  0.0073 -0.0083
 7836W        W11434   7.082  13.823   2.732 -0.1659  0.0010  0.0800
 7837W        W11435   0.768  10.661   7.992  0.1617 -0.0690 -0.2227
 7838W        W11436  12.666  10.688   4.251 -0.3887  0.1313 -0.0427
 7839W        W11437   3.357  11.694  12.852 -0.3040  0.1269 -0.4667
 7840W        W11438   7.136   5.231   8.607  0.0356  0.2124 -0.2306
 7841W        W11439  15.529   3.844  14.912 -0.3039  0.0704 -0.0654
 7842W        W11440   2.421  14.464   4.824  0.3181  0.1606 -0.0371
 7843W        W11441   5.630   5.293   2.172 -0.1448 -0.0183 -0.0755
 7844W        W11442  10.310   4.900   6.092  0.2315  0.2085  0.2467
 7845W        W11443  15.290  15.948   2.488  0.0226  0.0387  0.2021
 7846W        W11444   4.041   8.242   7.099  0.0743  0.1008  0.1334
 7847W        W11445   1.210   1.174   3.160 -0.0464  0.1770  0.0465
 7848W        W11446  15.600  11.744   2.931 -0.1344  0.0874  0.2296
 7849W        W11447   0.353  13.458   3.386 -0.2293 -0.2592  0.1063
 7850W        W11448   7.617  10.933  12.318  0.0165  0.1027  0.2370
 7851W        W11449  12.657   5.793   6.054 -0.2311  0.2676  0.0447
 7852W        W11450  11.407   0.289   3.920  0.0006  0.0205  0.1306
 7853W        W11451   8.130  10.167  10.130 -0.1137 -0.2675  0.2519
 7854W        W11452   2.382  13.909   6.606  0.2386  0.1306 -0.0808
 7855W        W11453   8.628   5.173  14.838  0.0240 -0.2909  0.0046
 7856W        W11454   1.390   6.475   4.303 -0.0126  0.0134 -0.2006
 7857W        W11455   3.823   9.912   6.725 -0.2878 -0.0463 -0.3797
 7858W        W11456   1.749   0.428   9.208 -0.1824 -0.0911 -0.1764
 7859W        W11457  15.128   9.602   8.847  0.0473  0.0108  0.1886
 7860W        W11458   6.800  13.747  10.064  0.0708 -0.0659  0.0597
 7861W        W11459  10.312   2.243   7.301 -0.0957  0.2825 -0.1495
 7862W        W11460   6.012   1.862   1.326  0.3353  0.0614  0.1419
 7863W        W11461   2.511   0.004   0.908  0.1158  0.1091  0.0670
 7864W        W11462  13.576   0.660  14.986 -0.1088 -0.2026  0.2055
 7865W        W11463   5.437  10.286  15.722 -0.1091 -0.0364  0.1014
 7866W        W11464   2.191   9.251  12.740 -0.1615  0.1560  0.0628
 7867W        W11465   8.155   3.443  11.486  0.2831  0.0034  0.4099
 7868W        W11466   1.861  13.173   4.675 -0.2163  0.3422 -0.1747
 7869W        W11467  12.654   4.901   7.284  0.1244 -0.0371 -0.2146
 7870W        W11468   9.226   4.676  14.881 -0.1253 -0.0899 -0.0301
 7871W        W11469   6.498  16.290   5.597 -0.0192  0.0925  0.2127
 7872W        W11470  16.111   9.025   3.380 -0.2459  0.1139 -0.1442
 7873W        W11471   0.825   1.963  14.183  0.0478 -0.0449  0.0573
 7874W        W11472   7.583   3.685   6.214  0.0461  0.0802 -0.3619
 7875W        W11473  11.042  14.937   1.254  0.3185 -0.1620  0.3036
 7876W        W11474  16.198  13.483  14.643 -0.1578  0.1848 -0.3002
 7877W        W11475  14.583  13.477  13.690 -0.3200  0.0989 -0.0298
 7878W        W11476  15.092  11.861   9.776 -0.0337 -0.2436 -0.2060
 7879W        W11477   2.210  11.782   1.515 -0.1215  0.1941 -0.0912
 7880W        W11478  14.004  15.793   9.903 -0.0988 -0.0019 -0.0972
 7881W        W11479  14.454   4.877   4.131 -0.1981  0.1555  0.1004
 7882W        W11480  13.384   5.098   9.905  0.2656 -0.1230 -0.1948
 7883W        W11481   6.844   7.723  16.031 -0.0047 -0.1584  0.0186
 7884W        W11482   9.393  13.431   1.199  0.0566 -0.1377 -0.3733
 7885W        W11483  13.703  11.069   6.330  0.1698 -0.0266 -0.0515
 7886W        W11484   5.858   2.522  10.979  0.2379  0.1848  0.2508
 7887W        W11485  13.058   3.905   8.528 -0.0598  0.1336 -0.1262
 7888W        W11486  11.441   5.356  10.987 -0.0423  0.0694  0.1755
 7889W        W11487  14.927  15.311  13.360 -0.1632 -0.0372  0.0442
 7890W        W11488   8.707   5.932   1.562 -0.0571 -0.2124  0.2676
 7891W        W11489  13.847   6.787  15.955  0.3492  0.1601  0.0461
 7892W        W11490  11.459   8.837   1.523  0.0050 -0.2073 -0.3334
 7893W        W11491   7.203   3.101   5.054 -0.1088 -0.0488 -0.0449
 7894W        W11492   2.763  16.282  15.433 -0.0869 -0.0228  0.0961
 7895W        W11493   2.819   0.433  15.704 -0.1104  0.0206  0.3433
 7896W        W11494   1.044  13.980   3.441  0.0712  0.3584  0.3085
 7897W        W11495   2.780  11.379   8.614  0.1252  0.0701 -0.4103
 7898W        W11496  12.806  12.611   3.874 -0.3399  0.0070  0.1683
 7899W        W11497   4.906  16.143   2.800 -0.0240  0.0179  0.0141
 7900W        W11498   4.269   3.009  14.487  0.0795 -0.2954  0.2496
 7901W        W11499   5.568   9.693  10.605  0.0725  0.2485  0.0667
 7902W        W11500   0.609   4.098  14.196 -0.1262  0.0948  0.3567
 7903W        W11501  14.455  12.273   1.255  0.0520 -0.0492 -0.1939
 7904W        W11502   7.723   3.725   0.405  0.2339 -0.1173  0.1723
 7905W        W11503  12.885   3.698  13.886 -0.0112 -0.0509  0.1478
 7906W        W11504  16.217   1.692   5.472 -0.0945  0.1736 -0.1316
 7907W        W11505   6.645   2.927  15.314 -0.0122  0.1534 -0.1820
 7908W        W11506  16.209   5.341   5.372  0.0322  0.0875  0.1641
 7909W        W11507   4.538   0.196  10.246  0.1381 -0.4473 -0.1454
 7910W        W11508   8.403   7.736  11.129  0.2058  0.0563 -0.2345
 7911W        W11509   2.726  15.688   9.438  0.2021  0.0633 -0.0345
 7912W        W11510   0.610  15.581  14.386  0.0126 -0.0921  0.3462
 7913W        W11511  15.765   9.117  11.752 -0.1827 -0.1644 -0.0702
 7914W        W11512   3.287  14.993  13.788  0.1985 -0.1004  0.1931
 7915W        W11513  11.928   0.837  14.378  0.0792 -0.0634 -0.3127
 7916W        W11514  11.436  16.160   1.042 -0.3479  0.2180  0.1216
 7917W        W11515  14.578  16.063   1.963 -0.0944  0.1539 -0.1818
 7918W        W11516  10.562   1.641   2.815  0.1962  0.3196 -0.0349
 7919W        W11517   0.966  10.009   4.489  0.0285  0.1153  0.3051
 7920W        W11518   2.082   3.599   4.816 -0.0406 -0.0793  0.1423
 7921W        W11519   0.570   9.143   8.508 -0.0686 -0.3652 -0.2137
 7922W        W11520   4.278  12.142   9.204  0.0685 -0.0788 -0.0422
 7923W        W11521   6.860   5.285   4.513  0.1199  0.2110 -0.0574
 7924W        W11522   1.878   7.020   0.842  0.0314  0.0349  0.3789
 7925W        W11523   5.398  10.588  11.616 -0.0502 -0.1510  0.2928
 7926W        W11524   5.463  11.024  11.399  0.0693  0.3368 -0.3805
 7927W        W11525  11.830   3.199   6.958  0.0867  0.0775  0.2009
 7928W        W11526   0.050   4.814   0.712  0.2323 -0.2574 -0.0890
 7929W        W11527   5.276   7.409   4.892  0.2613 -0.1549  0.0589
 7930W        W11528  14.626   5.715   7.570  0.0698 -0.1689 -0.3061
 7931W        W11529  12.259  13.668   3.640  0.1425 -0.0592 -0.0796
 7932W        W11530  15.534  16.178  12.836 -0.0828 -0.0803  0.2566
 7933W        W11531   3.593   8.368   6.257 -0.1170  0.2687 -0.5649
 7934W        W11532  12.302  13.852   7.450  0.2869  0.1083  0.0800
 7935W        W11533   9.809   7.909   0.312 -0.1805  0.0890 -0.0889
 7936W        W11534   4.700  10.997   8.563  0.2627 -0.1737  0.2400
 7937W        W11535   8.527  10.104   9.860 -0.2733  0.0482  0.2745
 7938W        W11536   9.589   5.399  12.331  0.2401 -0.0650  0.0164
 7939W        W11537  10.027   6.643   8.412  0.3450 -0.2581 -0.2038
 7940W        W11538   8.419   8.722   7.035  0.0114  0.0656  0.1382
 7941W        W11539   1.647  10.964   3.698  0.3472  0.0680 -0.0566
 7942W        W11540   1.001   3.900  13.697 -0.3430 -0.0231  0.1348
 7943W        W11541   8.726  10.771   5.349  0.0443 -0.3273  0.2200
 7944W        W11542   9.281   1.725   2.035  0.0035 -0.0217 -0.2062
 7945W        W11543  15.510   5.536  10.685  0.1155  0.6124  0.1809
 7946W        W11544   7.805  15.220   7.638  0.4507 -0.2783  0.3053
 7947W        W11545   0.456   8.991   2.210 -0.0705 -0.1638 -0.0145
 7948W        W11546   9.304   8.707  15.872 -0.2473  0.4499 -0.1951
 7949W        W11547   8.906  16.048   0.490 -0.0936 -0.0202 -0.2938
 7950W        W11548   2.049  13.749   3.889  0.2362  0.1527  0.0207
 7951W        W11549  10.849   7.964  13.281  0.0113  0.3426 -0.2976
 7952W        W11550   1.271   9.309   7.705 -0.2405 -0.2752 -0.1373
 7953W        W11551   0.703   6.384   7.816 -0.3546 -0.1493 -0.1168
 7954W        W11552  12.785  12.658   5.600 -0.1489 -0.0227 -0.1008
 7955W        W11553  15.591   4.765  15.834 -0.1220 -0.0057 -0.1275
 7956W        W11554   4.563   3.999  10.508  0.0594 -0.1440 -0.0475
 7957W        W11555   7.506   4.595   0.728  0.0734  0.1013  0.0552
 7958W        W11556   4.415   9.616   5.264  0.1367  0.2485 -0.0840
 7959W        W11557  11.201  15.435   5.814  0.2081  0.0017  0.1747
 7960W        W11558   2.332   7.259   2.468 -0.0428 -0.0448 -0.2611
 7961W        W11559   7.676   9.863   5.134  0.2715  0.2216 -0.0530
 7962W        W11560   9.408   7.819  10.213 -0.3302 -0.0879  0.5282
 7963W        W11561  15.607   1.133   2.794  0.2044  0.0562  0.1447
 7964W        W11562   6.165   7.766  15.719 -0.0358  0.1629 -0.3348
 7965W        W11563   8.909   4.240  15.502 -0.0249 -0.0248  0.1555
 7966W        W11564   8.898   6.913   3.853 -0.2299 -0.3760  0.0099
 7967W        W11565  10.519   1.069  12.425 -0.0268 -0.1902  0.1153
 7968W        W11566  12.909   0.623   2.913  0.0687  0.4772  0.3576
 7969W        W11567  12.612  11.549  14.192  0.3119 -0.1096 -0.0456
 7970W        W11568   8.100   2.734   6.319  0.0575  0.1161 -0.2098
 7971W        W11569   4.487   6.645  10.947  0.1443  0.2654  0.3294
 7972W        W11570   0.925   5.922   3.006 -0.1364 -0.1246 -0.2804
 7973W        W11571  12.345   9.048   0.684 -0.2512  0.1638  0.3829
 7974W        W11572   4.005  13.064   6.299  0.1189  0.1110 -0.0616
 7975W        W11573   2.039   2.161  10.311  0.0162 -0.2196  0.1441
 7976W        W11574   6.256  13.358   3.889 -0.1500 -0.0389 -0.1971
 7977W        W11575   4.816  12.783  13.545 -0.0423  0.0313 -0.1548
 7978W        W11576  16.158   4.202   6.330 -0.1946 -0.3794 -0.1882
 7979W        W11577   8.526  14.304  13.621  0.0021  0.1164  0.1754
 7980W        W11578  12.982  12.912  11.432 -0.0574 -0.0716  0.0349
 7981W        W11579   5.077  15.326   7.691 -0.0162  0.0367 -0.3231
 7982W        W11580  15.417   8.927  13.602 -0.1435 -0.0984 -0.0384
 7983W        W11581   3.215  14.908  14.752  0.0267 -0.0018 -0.1223
 7984W        W11582   6.997  12.196  10.050  0.0885  0.1476 -0.2683
 7985W        W11583   8.017  12.466  12.876  0.1314  0.0523 -0.3827
 7986W        W11584   5.227  12.229  12.556 -0.2651 -0.0723 -0.2117
 7987W        W11585   2.270  14.806   8.777 -0.0064  0.0663 -0.3733
 7988W        W11586   5.968   7.507   8.372  0.1263 -0.0433 -0.2970
 7989W        W11587  11.162   7.353   8.727 -0.1478 -0.0456  0.2460
 7990W        W11588  13.011   8.744  15.824  0.1647 -0.1210  0.4791
 7991W        W11589   6.179   5.105   7.411  0.0448 -0.0044 -0.0505
 7992W        W11590   2.593   0.924   7.840  0.1603 -0.0227  0.3729
 7993W        W11591  12.544  14.063  13.423 -0.0607  0.1197 -0.0087
 7994W        W11592  16.199  13.771  15.944 -0.0877  0.1222 -0.3861
 7995W        W11593   1.659  10.255  16.199 -0.0226 -0.0487  0.1249
 7996W        W11594  13.407  14.863  10.954 -0.1075  0.1321  0.2691
 7997W        W11595   4.352   4.109   9.938  0.1962 -0.2090  0.0650
 7998W        W11596   5.356   6.597  11.467 -0.0258  0.3988  0.0180
 7999W        W11597   4.400   3.652  12.711  0.2854  0.0070 -0.3006
 8000W        W11598  13.757  13.574   2.614  0.1676 -0.0977 -0.1867
 8001W        W11599   0.661  12.177   1.877 -0.0965 -0.0669  0.0578
 8002W        W11600   0.437  12.235   4.161 -0.2766 -0.1324 -0.1925
 8003W        W11601   2.185   2.265  13.085 -0.0819 -0.1797 -0.1034
 8004W        W11602   1.520   4.221   1.078  0.3446 -0.2281  0.3941
 8005W        W11603  14.554   3.908   9.181 -0.2407 -0.0991 -0.1185
 8006W        W11604   1.671  16.276   4.959 -0.0110  0.0494  0.0855
 8007W        W11605   7.548   4.815   6.149 -0.1506 -0.2547  0.0324
 8008W        W11606  11.549   9.244  11.774 -0.2133 -0.1581  0.2183
 8009W        W11607  15.452   5.995  16.364 -0.2336  0.0972 -0.0154
 8010W        W11608  14.283   1.014  16.049  0.0536 -0.1179  0.1187
 8011W        W11609   3.710   6.053   3.229  0.2134  0.1464  0.1784
 8012W        W11610   8.970  13.111   8.080  0.1214  0.1423  0.0671
 8013W        W11611  10.383   3.306  10.185  0.1427 -0.0118 -0.0406
 8014W        W11612  14.944   6.304  10.811 -0.1496 -0.0714  0.0498
 8015W        W11613  10.202  12.944  12.861  0.0602 -0.4501 -0.0554
 8016W        W11614   8.365  10.458   6.381  0.2841 -0.1232  0.1612
 8017W        W11615   7.605   4.144  14.389 -0.2034 -0.0401 -0.0823
 8018W        W11616  15.087   0.406   4.166 -0.1148  0.2351 -0.0112
 8019W        W11617  11.661   7.057   2.894  0.0301  0.0977  0.0232
 8020W        W11618   3.093  13.439   7.034  0.0756  0.0318 -0.2116
 8021W        W11619  11.355  14.252  10.302  0.1544  0.3226  0.0672
 8022W        W11620   8.680   8.695   1.130 -0.3776  0.4302 -0.3312
 8023W        W11621   4.601   9.422   3.707  0.0655  0.3621 -0.1684
 8024W        W11622  10.121   3.519  14.315 -0.0166  0.1945 -0.1162
 8025W        W11623   7.700   8.419   5.830  0.1085  0.0878 -0.1575
 8026W        W11624   3.201  15.377  13.453 -0.0084  0.2333 -0.2377
 8027W        W11625   7.405   2.944  15.551  0.0617 -0.2553 -0.0894
 8028W        W11626   2.507   0.249  10.974  0.1562 -0.4049 -0.0393
 8029W        W11627   4.685   7.069  11.608 -0.2164 -0.1929  0.1262
 8030W        W11628  10.783  10.155  14.565  0.1335  0.1666  0.0121
 8031W        W11629  12.375  10.791   0.107  0.1369  0.0196  0.0816
 8032W        W11630   9.703   2.912   4.587 -0.3021  0.0896  0.2428
 8033W        W11631   6.265  13.571  15.601 -0.1026  0.0215  0.2199
 8034W        W11632   0.869   3.089   2.983 -0.0249  0.1897 -0.0019
 8035W        W11633  16.289   8.145  12.755 -0.0976  0.0253 -0.0672
 8036W        W11634  14.352   0.581  11.544 -0.0243  0.0418  0.0492
 8037W        W11635  11.385   8.289  14.118 -0.2618 -0.0049  0.0812
 8038W        W11636   6.437   3.231  14.398 -0.0486  0.1844  0.0695
 8039W        W11637   8.675  15.503   3.454 -0.0794  0.0548  0.1931
 8040W        W11638  12.097   2.354   1.266  0.3159  0.1238 -0.4160
 8041W        W11639  12.805  13.052  14.375  0.1152  0.1322  0.0712
 8042W        W11640   4.120   6.908   7.062  0.0353  0.0586  0.2073
 8043W        W11641   1.981   5.509  11.016  0.2361 -0.0970 -0.0681
 8044W        W11642  10.248   2.466   0.873  0.0499 -0.2707  0.1483
 8045W        W11643  11.043   5.962  16.241  0.3056  0.3068  0.1549
 8046W        W11644  10.373   5.970  15.063 -0.0898  0.0998 -0.1178
 8047W        W11645  10.434  12.402   2.979 -0.0959 -0.2205  0.0973
 8048W        W11646   7.244   9.675   2.393  0.0634 -0.0270 -0.2622
 8049W        W11647  16.333  10.111  14.212 -0.0503 -0.0549  0.2060
 8050W        W11648  12.295   8.695   9.030  0.0724 -0.2084  0.1479
 8051W        W11649  13.456   1.788   4.341  0.0734 -0.2955  0.0281
 8052W        W11650  14.042  12.959   3.368  0.0978 -0.0761  0.2297
 8053W        W11651   3.785   3.334  12.242 -0.0439  0.1342 -0.0351
 8054W        W11652  15.039   4.874   7.063 -0.4205  0.0583  0.1487
 8055W        W11653  14.529   1.770   8.248 -0.0459  0.3678 -0.0359
 8056W        W11654  14.661  15.415  16.100  0.1275 -0.0517 -0.3011
 8057W        W11655   9.234   0.021   1.638 -0.0928 -0.0205  0.0777
 8058W        W11656   8.532   9.846   6.068 -0.2416  0.0339 -0.2636
 8059W        W11657  14.132   7.118  15.662  0.1140 -0.1390  0.1158
 8060W        W11658  14.644   9.703  13.428  0.1677  0.0659 -0.0728
 8061W        W11659  16.113  11.031   7.493  0.0654 -0.1530  0.2542
 8062W        W11660   5.781  13.252  14.465  0.0078 -0.2000  0.0603
 8063W        W11661   1.361  14.215  14.566 -0.0317 -0.0532  0.1718
 8064W        W11662  10.075   4.485  12.487 -0.3315 -0.0322 -0.4872
 8065W        W11663   4.117   9.219   1.537 -0.0436  0.0254 -0.1390
 8066W        W11664   5.656   5.591  13.308  0.3891 -0.0493 -0.1468
 8067W        W11665   0.734   5.393   7.827 -0.1609  0.2652  0.1758
 8068W        W11666   1.340  15.984   6.533  0.1742 -0.2545 -0.0820
 8069W        W11667   0.683  12.675  15.529 -0.2019  0.1841  0.3371
 8070W        W11668   8.554  12.344   1.335  0.1635 -0.0408 -0.2242
 8071W        W11669  13.193  13.051   1.818 -0.1453  0.3147  0.4772
 8072W        W11670   1.193   2.542   0.303  0.0145  0.1200 -0.1041
 8073W        W11671  12.924   5.688  14.592 -0.0132 -0.1236  0.3343
 8074W        W11672  14.000   8.882  15.611 -0.0716  0.1594  0.0571
 8075W        W11673   1.677   3.882   1.954 -0.2780  0.1566  0.1735
 8076W        W11674   5.207  11.452  13.277 -0.1300 -0.3577 -0.1222
 8077W        W11675   5.623   1.925  14.848  0.0048  0.2519  0.2363
 8078W        W11676  13.829  11.801  14.376  0.1595  0.1418 -0.2551
 8079W        W11677  16.036   7.291   3.514 -0.1278 -0.6092 -0.1298
 8080W        W11678  11.243  10.281  11.979  0.0656  0.0999 -0.0655
 8081W        W11679  11.074   5.096   3.549  0.0862  0.0991 -0.0035
 8082W        W11680   1.361   2.976   3.964  0.0377  0.1255 -0.1161
 8083W        W11681  11.800  13.330   1.729  0.1653 -0.0943  0.0970
 8084W        W11682   7.931   3.168   2.885 -0.0729  0.0708 -0.4593
 8085W        W11683   3.615  14.395   9.738  0.1051 -0.0153  0.3381
 8086W        W11684   0.214  15.059   7.423  0.1308 -0.1939  0.1564
 8087W        W11685   6.565   3.806  10.352  0.0660 -0.0194  0.2137
 8088W        W11686  14.532   0.081   2.932 -0.1869 -0.0256 -0.1996
 8089W        W11687   3.968  11.788  13.770 -0.0607 -0.0280 -0.0436
 8090W        W11688   1.642   5.572  13.179 -0.0307  0.1301  0.0654
 8091W        W11689   4.698  16.311   5.658 -0.0381  0.0358 -0.1877
 8092W        W11690  11.028   3.748   7.226 -0.1136 -0.0878  0.0099
 8093W        W11691   2.218   1.664   9.545 -0.0418  0.4502  0.0832
 8094W        W11692  15.229   1.907  10.549  0.0352 -0.1658  0.1374
 8095W        W11693   1.539  12.492   2.293  0.0227  0.3058  0.0319
 8096W        W11694   6.426  10.931   0.310 -0.2302  0.0792 -0.1982
 8097W        W11695   4.354   3.569  11.956 -0.0903  0.2090  0.1509
 8098W        W11696  12.772   9.179   8.490 -0.2929  0.0063  0.0326
 8099W        W11697   2.653   6.865   5.271 -0.1699 -0.3931  0.2728
 8100W        W11698  15.490  13.947  10.207  0.0186  0.0276  0.1142
 8101W        W11699   4.833   6.569  12.535  0.0526  0.6399 -0.2009
 8102W        W11700   9.040   8.310  16.014 -0.0678  0.0169  0.3156
 8103W        W11701   5.595   5.418  11.417  0.3166 -0.0556 -0.0337
 8104W        W11702   9.343   0.865   2.760 -0.0447  0.1726  0.0200
 8105W        W11703  12.476   1.531  14.659  0.1910 -0.0279 -0.0969
 8106W        W11704   2.458   5.266   6.119  0.1776 -0.0932 -0.0503
 8107W        W11705   8.274   0.619   2.300  0.0274  0.1881  0.2153
 8108W        W11706   4.747  15.004   7.755 -0.1535  0.0437 -0.0399
 8109W        W11707   9.688   2.502  15.421  0.1220  0.3327  0.1122
 8110W        W11708   4.975  10.982  13.559 -0.2207 -0.0663 -0.4751
 8111W        W11709   3.011  13.779   5.612 -0.1669  0.0609 -0.2310
 8112W        W11710   0.305  10.340   6.848  0.0720 -0.2253 -0.0402
 8113W        W11711  12.546   7.156   5.967 -0.1235 -0.2872  0.7679
 8114W        W11712   4.965   6.527   3.297  0.0975  0.1196  0.0980
 8115W        W11713  14.127   3.143  15.737  0.3382 -0.0566 -0.1199
 8116W        W11714   6.359   7.358   3.907 -0.1825 -0.2739  0.0463
 8117W        W11715   5.982   0.206  12.145 -0.0073 -0.3484  0.2537
 8118W        W11716  12.147  15.367  10.481 -0.1191 -0.0996  0.1523
 8119W        W11717  16.262  11.252   0.109 -0.1805  0.0321 -0.1209
 8120W        W11718   7.378   5.149   0.561  0.0704  0.1709 -0.0517
 8121W        W11719   5.322   0.378  15.208 -0.1714 -0.0360  0.2252
 8122W        W11720   5.091   7.732   5.443 -0.1632 -0.0905 -0.0624
 8123W        W11721   0.207   9.350   0.162 -0.0983 -0.1575  0.2717
 8124W        W11722   0.819   3.025  15.936 -0.0854  0.1297  0.0429
 8125W        W11723   1.554   6.764   7.942 -0.0114 -0.1862 -0.1147
 8126W        W11724   2.804   7.933   9.483 -0.0690  0.1842  0.3210
 8127W        W11725  13.733  13.853   6.838 -0.2200  0.2064  0.0002
 8128W        W11726   4.420   2.157   2.339  0.0488 -0.1258 -0.0137
 8129W        W11727   4.878   8.441  13.533 -0.2680  0.0155  0.2432
 8130W        W11728  15.181  13.436   2.570  0.0118 -0.2117  0.1978
 8131W        W11729   5.883   4.384   1.339 -0.2435  0.0117  0.1877
 8132W        W11730  14.213   6.780  14.893 -0.4089 -0.2740 -0.3541
 8133W        W11731  15.637   5.399   2.778 -0.1656  0.0735 -0.0286
 8134W        W11732   3.668   6.817  13.717  0.0644 -0.1732 -0.0394
 8135W        W11733  14.800  10.858  11.863  0.2105  0.0140  0.1277
 8136W        W11734   5.284   9.610   4.375 -0.0637  0.4240  0.1878
 8137W        W11735   9.250  14.010   5.791 -0.0922 -0.0747 -0.0535
 8138W        W11736  12.608   6.828   1.956  0.1353  0.0114 -0.0766
 8139W        W11737   9.016  15.120   1.357 -0.2323 -0.2690  0.1483
 8140W        W11738   6.718  14.646   6.418 -0.1268 -0.3663 -0.0289
 8141W        W11739  15.710  13.985  14.798  0.0685 -0.1135  0.1820
 8142W        W11740  10.568   4.239  14.935  0.0902  0.0490 -0.1528
 8143W        W11741   9.053   7.883   2.846  0.3044 -0.1280 -0.0436
 8144W        W11742  13.930  12.253   7.776  0.1674  0.1960 -0.1795
 8145W        W11743   2.483  12.069  10.267  0.2783  0.1302 -0.2049
 8146W        W11744   2.823   9.675  13.982 -0.3419 -0.1415  0.1675
 8147W        W11745  13.731   8.297   6.566 -0.1857 -0.0695 -0.2321
 8148W        W11746  16.321   0.417  10.173 -0.1495  0.1636  0.1783
 8149W        W11747   3.820   1.839   4.972  0.1842  0.1716 -0.4533
 8150W        W11748   9.438   4.069   6.065 -0.1548 -0.2920  0.0556
 8151W        W11749   2.166  10.669   2.915  0.1314 -0.0314 -0.0504
 8152W        W11750  12.410  14.486   3.389  0.1826  0.2306 -0.1811
 8153W        W11751   4.616   2.677  16.158 -0.1643  0.0357  0.1520
 8154W        W11752   5.915  14.747  14.374 -0.2515  0.0394 -0.0228
 8155W        W11753   1.053  13.274   0.928  0.1090  0.0305  0.0388
 8156W        W11754   3.647   4.550   9.760  0.0366 -0.2038  0.0066
 8157W        W11755   1.689  11.910   2.373 -0.0698  0.1614  0.1943
 8158W        W11756   2.029  11.946   0.467 -0.2384  0.0243  0.2144
 8159W        W11757  15.787  12.387  11.230  0.0640 -0.1349 -0.0758
 8160W        W11758   6.885   5.399  13.505 -0.3586 -0.1050  0.1175
 8161W        W11759  12.142   9.968  14.446  0.1052  0.0757  0.0444
 8162W        W11760  13.014  15.451   0.070 -0.0109 -0.1362  0.0456
 8163W        W11761   7.973   1.422  10.547  0.0156  0.1642 -0.2711
 8164W        W11762   4.618   9.919  14.899 -0.1945 -0.0514  0.0065
 8165W        W11763   8.667  12.716  13.496 -0.1998  0.3471  0.1649
 8166W        W11764   5.817   8.040  12.560 -0.1943 -0.0306  0.1399
 8167W        W11765  11.928  11.182  13.442  0.2952 -0.2798  0.1374
 8168W        W11766   4.201   0.741   0.908 -0.1496  0.1306  0.1090
 8169W        W11767   8.748  12.014   6.027 -0.2891  0.2997 -0.0520
 8170W        W11768  12.984   2.032  11.582  0.1479 -0.1640  0.0582
 8171W        W11769   0.296   6.159   7.694 -0.1665  0.1045  0.2044
 8172W        W11770   2.546   7.973   3.294  0.0602 -0.0497 -0.0390
 8173W        W11771   8.173   8.700   0.857  0.1765 -0.1869  0.1017
 8174W        W11772   0.216  11.130  14.469 -0.1533 -0.0371  0.3020
 8175W        W11773   1.194   1.797  15.507  0.1851 -0.0451 -0.0455
 8176W        W11774   1.835   8.842   0.307 -0.0518 -0.0248 -0.2736
 8177W        W11775  10.399   9.626  14.135  0.0705  0.0362  0.1815
 8178W        W11776   3.446  10.164   5.810  0.1229 -0.1493  0.1681
 8179W        W11777   0.255  12.748   5.498  0.2104 -0.1831 -0.1951
 8180W        W11778   4.807   5.127   9.332 -0.0203  0.1489  0.0387
 8181W        W11779   1.600   3.677  11.513  0.0933 -0.1607  0.1882
 8182W        W11780   5.510  10.370   9.714 -0.0960 -0.0890 -0.1079
 8183W        W11781  15.294  12.435   4.963  0.1324 -0.1704  0.0238
 8184W        W11782  14.932  12.564   6.549 -0.1252 -0.1066 -0.1556
 8185W        W11783  12.896   2.166  14.574  0.2206  0.2247  0.1444
 8186W        W11784   7.376  15.302   8.609 -0.2055 -0.0182 -0.0218
 8187W        W11785   4.949   9.275  13.981 -0.2788  0.0607  0.0805
 8188W        W11786   0.708   8.186  13.860 -0.4030  0.3468  0.2354
 8189W        W11787   9.410   8.835  12.564 -0.0972 -0.3997 -0.3573
 8190W        W11788   6.615   2.389   4.330 -0.2199  0.3056  0.1025
 8191W        W11789  15.703  16.282  13.722 -0.3341 -0.0291 -0.2576
 8192W        W11790   7.113   8.005  11.575 -0.3260  0.2343 -0.1430
 8193W        W11791  12.059   2.165   4.161 -0.2567 -0.0042  0.0928
 8194W        W11792  11.031   1.494   2.943  0.2337 -0.3609  0.0178
 8195W        W11793  14.537   8.139   2.738  0.1819  0.1353  0.0595
 8196W        W11794   1.838  15.780   7.998  0.2193 -0.0923  0.1155
 8197W        W11795  13.523  11.498   9.180  0.0331 -0.3278  0.1326
 8198W        W11796  10.923  14.653  11.774  0.2816 -0.1620  0.0719
 8199W        W11797   0.806   1.626   4.506 -0.3164  0.3655 -0.1233
 8200W        W11798   0.190   8.174   8.776  0.2956  0.3764 -0.1883
 8201W        W11799   4.506   2.312  12.988  0.2491 -0.2691  0.2756
 8202W        W11800   8.336   3.725   1.617 -0.0432  0.0027  0.0768
 8203W        W11801   0.285  13.161  15.888  0.0300  0.1407 -0.4202
 8204W        W11802   9.835   7.543  10.843 -0.1488  0.0338  0.2209
 8205W        W11803  11.146   4.096  11.267  0.1634 -0.1619 -0.1797
 8206W        W11804   2.698  15.197   6.394 -0.0721  0.0990  0.1507
 8207W        W11805  12.673   2.209   5.267 -0.2795 -0.1104  0.2160
 8208W        W11806   2.422  11.941   8.468  0.2908 -0.0286 -0.0763
 8209W        W11807  12.608  11.696   9.339 -0.0095  0.0445  0.1813
 8210W        W11808  12.469   4.648  11.449 -0.4759 -0.1880 -0.1635
 8211W        W11809   7.281  11.396   0.277 -0.3024  0.0984 -0.1209
 8212W        W11810   0.434   3.928   9.444 -0.0860  0.0136 -0.2028
 8213W        W11811   6.930   8.128  14.768  0.0639 -0.0336  0.2197
 8214W        W11812  13.409  10.084   5.541  0.1282  0.1747 -0.1220
 8215W        W11813   8.006   2.032  12.505  0.2522 -0.1090  0.1266
 8216W        W11814  11.505  10.950  13.103  0.0868 -0.2750  0.1104
 8217W        W11815   4.482  11.818   8.240 -0.1399 -0.0494  0.0784
 8218W        W11816   2.912   1.738   6.311  0.0819  0.1060  0.4694
 8219W        W11817  15.908   2.407   9.267  0.1700  0.0902 -0.1517
 8220W        W11818   3.117   2.474   5.019 -0.0678  0.1510  0.0142
 8221W        W11819  11.620   8.744  12.442 -0.0424 -0.0637 -0.2687
 8222W        W11820  11.636   8.556   6.953  0.0175 -0.0944 -0.1625
 8223W        W11821  14.149  15.878  14.559 -0.1028  0.0751 -0.0909
 8224W        W11822   4.300  12.634   7.780  0.2522  0.1060 -0.3656
 8225W        W11823   1.818   6.480   4.583  0.0807  0.0560 -0.2711
 8226W        W11824   5.560  13.410   0.737  0.1254  0.0920 -0.0139
 8227W        W11825   6.186   1.792   8.961  0.0409 -0.2395 -0.2356
 8228W        W11826   0.320   0.440  14.359 -0.0544 -0.0731 -0.0257
 8229W        W11827  15.911   2.906  14.121  0.2670 -0.1689 -0.1675
 8230W        W11828   5.379   1.038  14.536 -0.1540 -0.1751 -0.4792
 8231W        W11829   5.882   0.918   9.433 -0.1090  0.3613 -0.0285
 8232W        W11830   4.507   8.894  12.588 -0.1997 -0.0600 -0.0091
 8233W        W11831   5.969  12.136   1.357 -0.0160 -0.1957  0.1624
 8234W        W11832   6.202   2.863   4.244 -0.1784 -0.1224  0.3237
 8235W        W11833  14.650   8.073  13.260  0.2495  0.0384  0.1631
 8236W        W11834   9.434  10.651  10.182  0.0296  0.3667  0.0424
 8237W        W11835  14.719  16.223   0.037 -0.2107 -0.2291  0.2354
 8238W        W11836   3.306  12.753   5.636 -0.0319 -0.0436 -0.1091
 8239W        W11837   4.272  11.042  13.895  0.1301 -0.2230  0.0184
 8240W        W11838   2.526   5.193   2.885 -0.1691  0.1539  0.0126
 8241W        W11839   9.226  10.421   4.561 -0.0827  0.1508 -0.2949
 8242W        W11840   2.804  14.303   9.977  0.3999 -0.0685 -0.0985
 8243W        W11841  14.431   4.657   2.199 -0.0986  0.1384  0.2347
 8244W        W11842   5.566   6.112   8.105  0.0573  0.0281  0.1387
 8245W        W11843   0.669   9.445   0.380 -0.1233  0.2405 -0.0288
 8246W        W11844   4.894   2.369  14.353 -0.1193 -0.0431 -0.1687
 8247W        W11845  11.766   7.840   3.359 -0.1906  0.0795  0.4349
 8248W        W11846   3.980  16.099  14.666 -0.0014  0.2954  0.1561
 8249W        W11847   0.049   2.637   7.381 -0.1627  0.0984 -0.0006
 8250W        W11848   2.979  11.219  13.974 -0.1436  0.2373 -0.0712
 8251W        W11849  13.406  11.970   1.387 -0.1822  0.0940  0.3930
 8252W        W11850  10.729   9.632  16.094 -0.3781  0.1491  0.2448
 8253W        W11851   5.718   1.595   5.022 -0.0468 -0.3465  0.4111
 8254W        W11852   1.343  16.209  15.721 -0.0069 -0.1782  0.0325
 8255W        W11853   1.653  16.244   8.149 -0.2245 -0.0787  0.2955
 8256W        W11854  12.669   4.179  11.064 -0.1947  0.2268  0.0135
 8257W        W11855   1.312   2.343   3.373  0.1664  0.0385  0.2454
 8258W        W11856   0.738   3.555  15.898 -0.0087 -0.1372 -0.1566
 8259W        W11857   5.547   9.972  15.043  0.4059 -0.0284  0.0048
 8260W        W11858  10.046  10.072  11.131 -0.1555 -0.1367  0.0147
 8261W        W11859   4.959   7.407  15.624 -0.2201 -0.1640 -0.0816
 8262W        W11860  11.226  13.054   5.157 -0.4034  0.0479 -0.0962
 8263W        W11861   4.729  12.261  13.414  0.1052 -0.0535  0.1732
 8264W        W11862   8.038   6.947   8.364 -0.1030  0.0032  0.1579
 8265W        W11863   3.435  16.331   4.872  0.2149  0.0832 -0.1352
 8266W        W11864  13.812   8.950   3.873  0.0129  0.2626 -0.1307
 8267W        W11865   4.279  12.591  10.089 -0.0622 -0.0261 -0.0637
 8268W        W11866   8.734   7.432   1.441 -0.1653  0.2387  0.3310
 8269W        W11867  13.323   5.160  14.646 -0.2407  0.0885 -0.3745
 8270W        W11868   6.731  13.520  16.372  0.2465 -0.0123  0.2446
 8271W        W11869   3.537  10.746   8.398 -0.0976  0.0034 -0.0228
 8272W        W11870   2.196  14.947   8.338 -0.0956  0.1896 -0.4632
 8273W        W11871   5.310   3.774   9.568  0.3164  0.3602 -0.1589
 8274W        W11872   3.770   4.746   7.842 -0.3116 -0.1176  0.1045
 8275W        W11873   2.522   7.629   8.496  0.1656  0.1390 -0.3315
 8276W        W11874  15.309  11.186   6.583 -0.0413  0.0648  0.1208
 8277W        W11875   1.481   5.768   7.830  0.3028  0.1256 -0.2534
 8278W        W11876   3.966  12.658   8.218  0.1295  0.0455  0.0364
 8279W        W11877   2.508   5.118  10.292  0.2356 -0.0370  0.0890
 8280W        W11878   2.254  11.259  10.682 -0.2113  0.0935 -0.0470
 8281W        W11879  14.965  11.213   1.053  0.0413  0.0831 -0.2116
 8282W        W11880   7.800  12.075  12.383 -0.0994 -0.2382 -0.0864
 8283W        W11881  15.767   1.362  14.261 -0.1911 -0.2304  0.0385
 8284W        W11882   1.680  14.191   5.187  0.2514  0.0068  0.1020
 8285W        W11883   5.988  11.039   2.698 -0.2700 -0.1453 -0.0244
 8286W        W11884   0.232   5.849  10.666  0.3414  0.7369  0.1609
 8287W        W11885   3.596  13.540   7.741  0.0970 -0.1426 -0.2294
 8288W        W11886   3.764   8.674   0.659  0.1654 -0.0544  0.0841
 8289W        W11887   2.802   7.416  11.925 -0.1103  0.4104 -0.0227
 8290W        W11888  16.128  13.590   0.634  0.0854 -0.1349  0.1430
 8291W        W11889   6.297   3.118   5.379  0.2877  0.2409  0.0580
 8292W        W11890   4.733  10.626   4.252  0.3688 -0.0718  0.1286
 8293W        W11891   8.007   0.180   0.185 -0.0005 -0.3197 -0.2912
 8294W        W11892  16.190  10.368   6.956  0.1652 -0.2846  0.0759
 8295W        W11893  10.467  13.929  16.168 -0.1004 -0.4373  0.2220
 8296W        W11894   4.914   1.588   4.858 -0.0119  0.1947  0.1726
 8297W        W11895  11.007  11.358  15.891  0.1876 -0.1317 -0.4634
 8298W        W11896  15.421   3.467   8.704 -0.0796 -0.0266  0.1812
 8299W        W11897  16.050   4.370   9.201 -0.1878 -0.0743 -0.1315
 8300W        W11898   1.833   5.915  14.824  0.1590 -0.1653  0.0016
 8301W        W11899   4.792   5.697   9.021 -0.1876  0.3230 -0.0260
 8302W        W11900  10.916   1.034   3.697  0.2354  0.0023  0.0317
 8303W        W11901  13.421   4.100  11.661  0.2848 -0.2725  0.2128
 8304W        W11902   9.705   5.185  16.383 -0.1799  0.0932  0.1152
 8305W        W11903  15.355  11.890  10.954  0.0366  0.0717  0.0487
 8306W        W11904   6.127  14.475   5.423 -0.1159 -0.0837 -0.0690
 8307W        W11905   0.630   1.739   8.184 -0.0943 -0.0767 -0.0682
 8308W        W11906  11.606   6.521   1.667  0.0545 -0.1388  0.1747
 8309W        W11907   0.953   7.359   9.309 -0.2629 -0.2610 -0.1273
 8310W        W11908  13.084   6.743  13.201 -0.0690 -0.1445 -0.1664
 8311W        W11909  13.443  13.322   0.406  0.4138  0.0045  0.0887
 8312W        W11910   0.303  13.771  13.362  0.0422  0.1645  0.0725
 8313W        W11911  10.531  10.405   4.592 -0.1461 -0.0770  0.3177
 8314W        W11912   2.159   7.030   0.409 -0.2506 -0.0005 -0.1062
 8315W        W11913   6.306  11.854  16.260 -0.1848  0.2263 -0.0006
 8316W        W11914   8.532   5.692   0.575 -0.1214  0.1275  0.2914
 8317W        W11915   3.773   7.227  13.227  0.3177  0.0014 -0.1765
 8318W        W11916  10.851  10.727   7.664 -0.1259 -0.0937 -0.1971
 8319W        W11917   5.657   6.878   3.485  0.0895  0.2271 -0.0768
 8320W        W11918   2.222   3.026  12.734  0.3902 -0.2592  0.4071
 8321W        W11919  10.717   5.859  10.286  0.2132 -0.1004  0.2442
 8322W        W11920   7.576   5.586  15.866  0.0604 -0.0648 -0.2976
 8323W        W11921   4.241   8.889  13.726 -0.0187  0.1303 -0.1754
 8324W        W11922  12.216  11.042   4.683  0.2605 -0.0457 -0.1159
 8325W        W11923   4.727  13.052   5.611  0.0219  0.0369  0.1356
 8326W        W11924   4.367  10.208  15.732 -0.0292  0.0585  0.2114
 8327W        W11925   2.781   1.542   3.498  0.1018  0.0029 -0.0394
 8328W        W11926   5.490   2.291   5.668 -0.1487  0.0717 -0.1237
 8329W        W11927   0.078   4.481   8.012 -0.0585  0.2457 -0.0255
 8330W        W11928   9.918  10.841   4.111  0.1060  0.2666  0.1601
 8331W        W11929  13.361  14.255   3.968  0.1557 -0.2158 -0.2303
 8332W        W11930  16.311  14.127   7.467 -0.0490  0.1456  0.0997
 8333W        W11931   1.746   9.229   4.618 -0.2062 -0.0197 -0.0411
 8334W        W11932   9.574   8.089   3.695 -0.0569  0.0944 -0.1213
 8335W        W11933  15.302   1.445   7.290 -0.2019  0.1234 -0.2255
 8336W        W11934  12.398   8.746   7.634 -0.1832 -0.0090  0.1331
 8337W        W11935   7.956  16.352   4.359 -0.1088 -0.1143  0.2301
 8338W        W11936   9.084   9.817   8.185 -0.3091  0.1023  0.2891
 8339W        W11937   5.158  12.431  13.171 -0.0156 -0.0583 -0.1033
 8340W        W11938   2.211   6.468  14.060 -0.2044 -0.1457  0.3016
 8341W        W11939  15.384   9.132   9.562  0.3117 -0.3095  0.2848
 8342W        W11940  12.638  13.740   4.392 -0.1136  0.1200  0.0954
 8343W        W11941   3.113   3.690   0.500  0.2336  0.0729  0.3110
 8344W        W11942   0.005   8.517  15.029  0.1537 -0.1260  0.1503
 8345W        W11943   7.620   5.203  10.658  0.0655 -0.1487  0.0002
 8346W        W11944   5.089   1.646  12.722  0.0637  0.1920 -0.1570
 8347W        W11945  13.693   4.451   0.950  0.0517  0.3142 -0.0128
 8348W        W11946  16.253  15.513   2.155 -0.3348 -0.3363 -0.4670
 8349W        W11947  10.704  14.147   0.647 -0.3976  0.0125  0.0615
 8350W        W11948  12.588   7.213   3.042  0.3205  0.0315  0.0414
 8351W        W11949   3.589   0.050  14.529 -0.1875  0.0150  0.1552
 8352W        W11950   3.131  11.175  15.344  0.1315 -0.2261  0.1449
 8353W        W11951   5.401  14.372   0.513  0.2026 -0.2118  0.0872
 8354W        W11952   8.819  13.955  14.434  0.3663  0.0498  0.2010
 8355W        W11953   0.726  10.001   8.297  0.3104  0.0980 -0.2551
 8356W        W11954   9.516   5.840  14.828  0.0887 -0.1716  0.3412
 8357W        W11955  13.281  12.837   2.242  0.0627  0.0776 -0.0549
 8358W        W11956   6.331   5.734   3.293 -0.1266 -0.2524  0.3417
 8359W        W11957  11.852   3.015   6.071  0.2060  0.1972  0.1742
 8360W        W11958   9.068   0.658   3.510 -0.0183  0.3723 -0.1299
 8361W        W11959   9.080  13.511  11.608  0.1289  0.2705  0.0681
 8362W        W11960   7.066  12.638   9.361  0.0612  0.3872 -0.0608
 8363W        W11961   2.620   1.155  14.025 -0.1243  0.1411 -0.3059
 8364W        W11962  14.309  14.879   9.739 -0.0960  0.2548  0.1607
 8365W        W11963  13.394   0.501   3.768  0.3623 -0.0512 -0.0509
 8366W        W11964   8.265  12.031   9.741 -0.1144 -0.0871  0.0810
 8367W        W11965  14.836   0.035  15.072 -0.0250 -0.3043  0.2209
 8368W        W11966   9.472  10.109  11.655 -0.0346 -0.2274  0.0623
 8369W        W11967   4.014  14.041  12.793 -0.2968 -0.1684  0.0976
 8370W        W11968   7.207  12.756  13.900  0.2475  0.1884  0.1748
 8371W        W11969  12.278   8.113   2.500 -0.1126 -0.1601  0.1641
 8372W        W11970   3.516  15.526  12.916 -0.0851  0.0564  0.0809
 8373W        W11971  16.036  13.449   5.313 -0.2558 -0.2412 -0.0121
 8374W        W11972   5.272  10.516   4.276 -0.1304  0.0122  0.3519
 8375W        W11973   5.585   8.036  11.259  0.2064 -0.1357  0.4633
 8376W        W11974  10.958   1.379   4.785 -0.1365 -0.0772 -0.2979
 8377W        W11975   6.359   9.091  11.862  0.2234 -0.1408 -0.0605
 8378W        W11976  12.463   5.172  14.005  0.0196 -0.0962  0.0067
 8379W        W11977  11.722   9.208  13.159  0.1034  0.0497  0.4733
 8380W        W11978   3.521   8.548  16.072  0.0699  0.2453  0.1193
 8381W        W11979   3.350   3.049   1.733 -0.1114 -0.0991 -0.0073
 8382W        W11980   9.848  12.047   0.597 -0.0828 -0.1023  0.1773
 8383W        W11981   9.492   8.924   4.262 -0.0158 -0.0115 -0.1742
 8384W        W11982  11.967   6.097   7.617 -0.1046 -0.0271 -0.2524
 8385W        W11983   2.724  13.437   5.324 -0.2389  0.0896  0.0500
 8386W        W11984   1.093   8.878  16.122 -0.1819  0.0228  0.3295
 8387W        W11985   7.565   9.042   8.815  0.1473 -0.0363  0.0127
 8388W        W11986  10.194  14.442   6.121  0.2214  0.2048 -0.1318
 8389W        W11987  12.710   8.361   4.065 -0.1436  0.2629  0.2955
 8390W        W11988   3.404  10.542   9.891 -0.1333  0.0989  0.1333
 8391W        W11989   6.800  13.740   4.659  0.0255 -0.0462  0.1968
 8392W        W11990  11.514   3.233   7.358  0.1375  0.0431 -0.1285
 8393W        W11991   5.978   8.554   1.568 -0.0734  0.1983  0.3461
 8394W        W11992   7.046   5.213  11.509 -0.0812  0.0977 -0.1298
 8395W        W11993   9.645  11.979   0.132  0.1254  0.1654  0.0929
 8396W        W11994  10.755  11.002  14.331 -0.2384 -0.1265 -0.0020
 8397W        W11995   4.215   4.478   2.762 -0.0059  0.0936  0.2323
 8398W        W11996   2.541   6.228   3.766 -0.2190 -0.2324 -0.1499
 8399W        W11997   4.188  14.820  15.501  0.1394  0.0072  0.3968
 8400W        W11998  11.059  16.042  16.203 -0.1043 -0.1356  0.0777
 8401W        W11999  16.146   4.858   8.948  0.1844 -0.0368 -0.0353
 8402W        W12000  12.268  14.066  13.823 -0.2849  0.2611 -0.0874
 8403W        W12001   1.937  13.949   2.822  0.4555 -0.3050  0.0062
 8404W        W12002   0.756   5.438   3.692 -0.4273 -0.1599 -0.2328
 8405W        W12003   1.459   2.479   4.077  0.0258  0.2862 -0.2000
 8406W        W12004   6.653   6.496   0.253  0.0319  0.0210 -0.1216
 8407W        W12005  14.289   5.243  13.413  0.0613 -0.0117  0.2041
 8408W        W12006  12.509   0.480   6.800 -0.0541 -0.2489 -0.0024
 8409W        W12007   6.606   5.365   7.533  0.0512  0.1355  0.1087
 8410W        W12008   7.282  13.314  12.227  0.1702  0.0725  0.0608
 8411W        W12009   7.459   6.412   2.265 -0.0819  0.1853  0.1594
 8412W        W12010   9.063   2.231   5.614 -0.2951  0.0724  0.3012
 8413W        W12011   4.613   3.392   5.738 -0.2321 -0.1333  0.1187
 8414W        W12012  15.210  12.699   0.737 -0.2513  0.2076  0.2728
 8415W        W12013  16.348   0.546   0.821 -0.0654  0.0063 -0.0852
 8416W        W12014   2.431   8.110  14.757 -0.2260 -0.1179  0.0829
 8417W        W12015   2.580   2.618   4.921 -0.1536 -0.3239 -0.0373
 8418W        W12016   2.336  10.056   1.071 -0.3718 -0.0833 -0.0510
 8419W        W12017   0.240   3.639   5.176  0.0025  0.1571 -0.1864
 8420W        W12018   4.148   8.683   5.125  0.0633 -0.3926 -0.0722
 8421W        W12019   4.183   6.033  11.480  0.1134 -0.0907  0.0023
 8422W        W12020  12.955  12.306  12.698 -0.2801 -0.1200  0.0816
 8423W        W12021  16.078   1.466  12.300  0.2271  0.1032  0.2744
 8424W        W12022   2.439   0.552   1.055 -0.1359 -0.3097 -0.0112
 8425W        W12023  13.359   7.773   2.050  0.0042  0.0690 -0.0053
 8426W        W12024   2.310  15.376  15.500 -0.1845 -0.2969  0.1421
 8427W        W12025   5.422  11.403   9.424 -0.0003 -0.1672  0.3615
 8428W        W12026  15.033  16.236  15.500  0.2314 -0.1256  0.1912
 8429W        W12027  13.518  11.003  14.680  0.1244 -0.0095 -0.0085
 8430W        W12028   9.665   9.126   3.248  0.1121 -0.0614  0.0511
 8431W        W12029   4.825  12.718   7.826  0.0619  0.0125  0.0129
 8432W        W12030   6.738   2.054  10.253  0.2591 -0.2056 -0.0936
 8433W        W12031   9.825   4.284   5.700 -0.0496 -0.1249 -0.0152
 8434W        W12032   1.794   1.343  14.624 -0.0856 -0.0441 -0.0305
 8435W        W12033  13.816  13.253   0.784 -0.1368  0.0742  0.2075
 8436W        W12034   6.776  13.842   1.960  0.0163  0.2549 -0.2565
 8437W        W12035   9.473   7.020   9.683 -0.3643 -0.3820  0.1040
 8438W        W12036   3.033   1.216  13.616  0.0552 -0.0272 -0.0191
 8439W        W12037   0.624  14.825   4.854 -0.3033  0.1243  0.2586
 8440W        W12038   1.131  15.460  16.113  0.1807  0.0218 -0.1326
 8441W        W12039   9.168   8.961  13.652  0.0170  0.1247 -0.2199
 8442W        W12040  13.078  12.109   5.617  0.0461  0.1440 -0.1875
 8443W        W12041   9.916   5.367   9.251  0.0144  0.0207  0.0942
 8444W        W12042   3.819   2.351   0.745 -0.0127  0.0152  0.3218
 8445W        W12043   7.393   8.300  14.731 -0.1306  0.2186 -0.0451
 8446W        W12044   9.270  13.031  10.330 -0.2195 -0.0250  0.1194
 8447W        W12045  14.261   5.606  15.689  0.4611  0.0937 -0.3035
 8448W        W12046  13.555   8.190  14.751 -0.2889 -0.2141 -0.1952
 8449W        W12047   4.182  16.021   0.177  0.2520 -0.1084 -0.1537
 8450W        W12048  10.878  15.080  11.564  0.0655  0.1906 -0.0057
 8451W        W12049   5.353   9.387  14.369 -0.0487 -0.1046  0.1941
 8452W        W12050  11.115   8.728   6.842 -0.2118  0.4415 -0.0905
 8453W        W12051  13.048  11.161   4.188 -0.0443 -0.1882  0.1852
 8454W        W12052   1.132   4.024  15.665  0.4509 -0.1623  0.1372
 8455W        W12053   8.047  10.316  14.484 -0.1218 -0.0226 -0.0867
 8456W        W12054   0.961   6.308  16.004  0.1510  0.4991  0.2367
 8457W        W12055   2.686  15.307   1.901  0.0437 -0.0987 -0.2300
 8458W        W12056   2.668  15.816   7.808 -0.0731 -0.1340  0.2926
 8459W        W12057   9.800  12.421   2.691  0.2221  0.0885  0.0898
 8460W        W12058   6.839   1.621   2.025  0.2509  0.0342 -0.2055
 8461W        W12059   7.934   7.101   9.677  0.1343 -0.0516  0.2112
 8462W        W12060   9.782   0.069   3.683 -0.0397  0.1860 -0.4291
 8463W        W12061   3.463  14.762   4.336  0.0653  0.1134 -0.2434
 8464W        W12062  12.991  13.817  14.111 -0.2803  0.0774  0.0879
 8465W        W12063  14.250   2.231   2.272 -0.1042  0.1346 -0.2029
 8466W        W12064  13.067   6.027   6.967 -0.1815 -0.0884 -0.2260
 8467W        W12065   4.407  12.514   9.631  0.0381 -0.2015 -0.2079
 8468W        W12066   4.187   7.687   3.589 -0.0958  0.1697 -0.1613
 8469W        W12067   3.581   9.294   1.310  0.0957  0.1242 -0.1052
 8470W        W12068   4.996  12.474   0.291 -0.1028 -0.0126  0.0854
 8471W        W12069   4.144  14.617   0.449  0.3401 -0.0086  0.0593
 8472W        W12070   6.594   4.370  10.925  0.1719 -0.1608  0.0924
 8473W        W12071   9.125   6.831  15.767 -0.2165 -0.0031 -0.0273
 8474W        W12072  12.026   6.479  12.206 -0.0450  0.2125  0.2541
 8475W        W12073   4.930  11.294   5.448 -0.1975  0.1287  0.2008
 8476W        W12074   9.773   3.825  15.739  0.0196  0.3937 -0.2632
 8477W        W12075  10.915   6.939  13.518 -0.0629 -0.1201 -0.0031
 8478W        W12076  13.047  10.156   8.106 -0.1948 -0.2435  0.0202
 8479W        W12077  10.960   6.427   6.834  0.1732 -0.1331 -0.2099
 8480W        W12078   1.655  14.824  12.086 -0.0546  0.0073 -0.0751
 8481W        W12079  15.438  15.473  13.457  0.1607  0.1137 -0.0824
 8482W        W12080  12.359   0.315   2.063 -0.0859  0.1049 -0.2017
 8483W        W12081   8.034   8.268  13.750  0.0116  0.3571 -0.0413
 8484W        W12082  11.690  14.478   5.139  0.0069 -0.1196  0.1748
 8485W        W12083   0.178  16.282   8.586  0.1702 -0.1365  0.0619
 8486W        W12084  13.056   1.156  14.531  0.0682 -0.1541  0.0175
 8487W        W12085   2.786   1.475   2.165  0.0165 -0.0310 -0.0620
 8488W        W12086   5.109   9.461  12.590  0.1688 -0.0469 -0.2347
 8489W        W12087  16.292  10.522  11.384  0.1114  0.1046  0.2576
 8490W        W12088   9.861  12.940   2.517 -0.0135  0.0593 -0.0224
 8491W        W12089  11.450   3.457   7.797  0.0741  0.0418  0.2795
 8492W        W12090   9.214  10.498   9.023  0.0570  0.0624 -0.1170
 8493W        W12091   6.027   5.006  10.692  0.3559 -0.0869 -0.4771
 8494W        W12092   3.008   5.714   3.011 -0.0148  0.2736  0.2861
 8495W        W12093  16.374   1.331  15.733  0.1620  0.2340 -0.0528
 8496W        W12094   1.390   2.555  15.786  0.4336 -0.0135 -0.0587
 8497W        W12095   7.263  10.486   1.404 -0.3520 -0.0019 -0.1706
 8498W        W12096   1.184   4.174   1.431 -0.1464 -0.2992  0.2222
 8499W        W12097  13.456  16.039   4.015 -0.0294 -0.1557 -0.0802
 8500W        W12098   8.916  14.001   2.003  0.2544  0.3152  0.1666
 8501W        W12099  10.160   2.629   4.581 -0.1964  0.0498  0.0840
 8502W        W12100   5.657   3.568  13.384 -0.0014  0.0561  0.4034
 8503W        W12101  12.732  14.674   2.907 -0.2350  0.2560 -0.3745
 8504W        W12102   1.183  15.708   5.693  0.0935 -0.0639  0.0780
 8505W        W12103  14.048  10.114   8.051  0.1259  0.2543 -0.1572
 8506W        W12104  14.488  15.727  11.199  0.1007  0.1358 -0.0764
 8507W        W12105   0.903   2.524   7.995  0.1027 -0.0576  0.0651
 8508W        W12106   5.500   0.582   9.115  0.1163 -0.0692  0.0022
 8509W        W12107  13.374  10.490  14.934 -0.2048  0.2866  0.2491
 8510W        W12108   2.863   0.649  10.311  0.0504  0.2549  0.0243
 8511W        W12109  13.280   5.758   3.997 -0.0792 -0.4003 -0.1099
 8512W        W12110   9.204   5.412   7.683 -0.4041  0.2669  0.2392
 8513W        W12111   5.904   3.180  13.199 -0.1491 -0.0494  0.2615
 8514W        W12112   7.898   0.656   1.810  0.1887 -0.2280  0.0306
 8515W        W12113  14.143  13.418   9.102  0.1479  0.3003  0.2163
 8516W        W12114   9.586   0.282   9.162  0.0505  0.0557 -0.2509
 8517W        W12115  12.663   7.672   7.342  0.1836 -0.2253 -0.2631
 8518W        W12116   5.402  14.791  15.942 -0.3498  0.2387 -0.1844
 8519W        W12117   8.749   1.163   7.862 -0.1609 -0.0047 -0.0348
 8520W        W12118   7.020   6.884   5.350 -0.0766  0.3436 -0.2338
 8521W        W12119   2.301  11.324   5.148  0.0058  0.3622  0.4190
 8522W        W12120   4.447   3.913   5.868  0.0157 -0.4085  0.2866
 8523W        W12121   2.176   9.238   6.221 -0.3796 -0.0131  0.1067
 8524W        W12122   1.047   3.813   4.581  0.0018 -0.0542  0.3284
 8525W        W12123  12.901   3.551   3.434  0.2207  0.0106 -0.1089
 8526W        W12124   8.090   9.838   3.716  0.3171  0.0282 -0.2837
 8527W        W12125   4.666   7.676  10.820  0.1874  0.4253 -0.1274
 8528W        W12126   2.815   5.129   4.321 -0.0506 -0.2642 -0.1037
 8529W        W12127   8.418  10.299   4.520  0.2658 -0.3964 -0.2555
 8530W        W12128   9.212   1.917   1.033 -0.1887  0.2504 -0.1182
 8531W        W12129   4.476   3.518  10.943 -0.0929 -0.1481  0.5043
 8532W        W12130  14.588   1.535   4.974  0.0530  0.3064  0.2210
 8533W        W12131  10.846  12.455  12.936  0.0029  0.0584  0.1514
 8534W        W12132  15.816   2.171   2.784 -0.0131  0.0760  0.2878
 8535W        W12133   3.335   5.637   7.841  0.3527  0.0054 -0.2194
 8536W        W12134   0.580   1.023   1.213  0.1312  0.0713 -0.0628
 8537W        W12135   4.167   2.589   9.291  0.2324 -0.0396 -0.0987
 8538W        W12136   5.053   2.652   5.609 -0.0369  0.2141  0.0084
 8539W        W12137  13.525  15.040   4.929  0.1462 -0.2736  0.1830
 8540W        W12138   4.824   6.286   1.406 -0.1763 -0.0638  0.1624
 8541W        W12139  12.010  14.631  14.730  0.0066 -0.3322 -0.2026
 8542W        W12140   9.772  12.923   8.111 -0.0971 -0.0552 -0.1151
 8543W        W12141  11.315   0.229   1.294  0.1322 -0.5463 -0.1127
 8544W        W12142   6.911   9.531  14.295  0.1709  0.0940 -0.1412
 8545W        W12143   7.238   3.555   7.710 -0.0030 -0.1291 -0.0986
 8546W        W12144   6.550   8.491   2.707  0.0368  0.3616 -0.1331
 8547W        W12145  15.525   7.711  15.290  0.1783 -0.1130  0.1956
 8548W        W12146   1.879   6.911   3.390  0.4449  0.0409 -0.1067
 8549W        W12147   9.971   7.291   7.645 -0.0068 -0.1682  0.0769
 8550W        W12148   0.650  13.221   6.915 -0.1944 -0.0089 -0.0839
 8551W        W12149  11.544  11.832  15.191  0.2996 -0.1071 -0.1666
 8552W        W12150   0.255  12.046   6.222 -0.0856  0.4992 -0.1748
 8553W        W12151  11.253  11.136  10.673  0.1420  0.0314 -0.1186
 8554W        W12152  12.303   3.647   3.772  0.1220 -0.0342 -0.1199
 8555W        W12153   7.069   6.773  10.815 -0.1544  0.1331 -0.0328
 8556W        W12154  16.076   6.862  13.885  0.0425 -0.2344  0.0231
 8557W        W12155   9.435   9.609   4.998  0.4479  0.1285  0.1614
 8558W        W12156   8.802   6.095  10.425  0.2880  0.1322  0.1588
 8559W        W12157   8.932  10.628  16.046  0.0146 -0.1366 -0.1134
 8560W        W12158  13.481  13.551  10.305  0.1679 -0.2170 -0.2373
 8561W        W12159   9.418  13.531   9.640 -0.0590  0.0299  0.2928
 8562W        W12160  14.668   8.263  11.109 -0.1157  0.1496  0.0949
 8563W        W12161  12.802   8.345  10.208  0.1332  0.0108 -0.1045
 8564W        W12162  10.956  15.719   8.934  0.0290  0.1111 -0.1607
 8565W        W12163  14.374   9.303   5.031  0.2700  0.1138 -0.0640
 8566W        W12164   8.377   8.403  13.418 -0.1482 -0.0008  0.0681
 8567W        W12165   3.298  15.834  13.206  0.1354 -0.2733  0.5434
 8568W        W12166   3.839   3.596  10.197 -0.2665 -0.1513  0.2273
 8569W        W12167   0.541  12.150   7.459  0.0659  0.1810  0.1120
 8570W        W12168   1.927   5.889   2.492 -0.3015 -0.1637 -0.0388
 8571W        W12169   4.078   1.000  16.313 -0.2150 -0.1679  0.3809
 8572W        W12170  10.225  15.413  14.944 -0.0988  0.0976  0.1538
 8573W        W12171   5.600   4.748   0.547 -0.1691  0.0445  0.2793
 8574W        W12172  14.253  12.705   0.998  0.0175 -0.1868 -0.2157
 8575W        W12173   4.266   5.518   7.568  0.1042 -0.0071  0.0532
 8576W        W12174   4.677   3.300   7.081 -0.0817 -0.0265  0.2278
 8577W        W12175  14.824   6.337  15.924 -0.2562  0.3200 -0.1771
 8578W        W12176   2.331   8.685  15.844 -0.1247  0.0708 -0.1234
 8579W        W12177   7.856  12.121  11.008  0.1767  0.1743  0.0370
 8580W        W12178   8.556  11.889  14.007 -0.0016 -0.0498  0.0268
 8581W        W12179   5.231  10.631   6.559 -0.3153 -0.2167  0.1042
 8582W        W12180  15.505   2.296  14.207 -0.3378 -0.2087  0.0303
 8583W        W12181  15.289   4.028   2.033  0.1994 -0.0388 -0.0056
 8584W        W12182  15.129  13.923   3.037  0.1838 -0.1844  0.0289
 8585W        W12183  11.691  12.940  14.689  0.0334 -0.2516 -0.2542
 8586W        W12184   1.321  13.971   1.452  0.0359 -0.1194  0.1153
 8587W        W12185  12.800   5.841  12.232 -0.0132 -0.1328  0.3091
 8588W        W12186  12.601   7.468   7.882 -0.0854 -0.1170 -0.3831
 8589W        W12187  11.639   4.871   3.469  0.0389 -0.3958  0.0830
 8590W        W12188   3.101   9.084   3.458  0.2001  0.2060  0.0158
 8591W        W12189   1.040   1.717  10.016 -0.4793 -0.0607 -0.1405
 8592W        W12190  12.264   1.130   0.865  0.1910 -0.0257 -0.2916
 8593W        W12191   5.494  15.609  11.282  0.4436 -0.0877  0.2066
 8594W        W12192   8.228   7.714   7.614  0.0791  0.0416  0.0781
 8595W        W12193  14.558  10.129  11.013 -0.1349  0.0266  0.0623
 8596W        W12194   5.899   0.802  11.347  0.0864  0.0529 -0.0077
 8597W        W12195   6.241   8.704  13.568  0.3590  0.2907 -0.2617
 8598W        W12196  14.503  15.204   7.461 -0.2249 -0.0093 -0.0377
 8599W        W12197   9.676   5.309  11.360 -0.0751  0.1700 -0.1366
 8600W        W12198   7.164   6.436  14.312 -0.2101 -0.0442 -0.1190
 8601W        W12199  16.357   1.302  11.873  0.0235 -0.1456 -0.0379
 8602W        W12200   7.225   8.155   6.856 -0.2233 -0.1067 -0.3016
 8603W        W12201   7.553  10.116  12.244 -0.2388 -0.0459 -0.0095
 8604W        W12202  11.737   3.524  11.412 -0.1380 -0.0801  0.2265
 8605W        W12203   2.655   8.591   6.087  0.0248  0.2108  0.0218
 8606W        W12204   3.031  10.420   5.529 -0.1149  0.1883 -0.0390
 8607W        W12205  12.263  11.584  11.668  0.0121  0.1059  0.0572
 8608W        W12206   8.829   3.335   6.559 -0.0859 -0.1155 -0.1572
 8609W        W12207   7.074   2.276  12.709  0.1561 -0.2184 -0.2421
 8610W        W12208  15.657   7.754   4.980  0.0954 -0.0981  0.0352
 8611W        W12209   6.709   6.591   9.634 -0.1066  0.1489  0.4848
 8612W        W12210   2.478   5.153   2.406 -0.1145 -0.0556  0.0302
 8613W        W12211   0.671   1.947   2.411  0.6777  0.0931  0.2817
 8614W        W12212   8.607  15.350   2.689 -0.0255 -0.1321 -0.0284
 8615W        W12213  13.235  14.834  15.791 -0.0136  0.1380 -0.3305
 8616W        W12214   5.294   7.568   7.489  0.0260  0.2567 -0.2722
 8617W        W12215   5.617  13.040   4.325  0.1180  0.1915 -0.1714
 8618W        W12216   9.152  15.728  13.422 -0.2536 -0.2854  0.1558
 8619W        W12217   1.861   5.269   9.726  0.3527 -0.0654 -0.0368
 8620W        W12218   6.693   7.478   9.658 -0.1888  0.3820  0.0603
 8621W        W12219   0.612  14.089  16.213 -0.1443  0.0230  0.0040
 8622W        W12220  14.279  10.281   2.565 -0.2304  0.1438 -0.1552
 8623W        W12221   3.584  14.912   1.842  0.2719 -0.1290  0.2108
 8624W        W12222   3.301   9.533   7.244  0.0066  0.0515  0.2493
 8625W        W12223   4.335   1.012   4.411  0.1111  0.0549  0.0518
 8626W        W12224   9.263  13.617  14.556 -0.2475  0.1960  0.1039
 8627W        W12225   6.307   9.634   8.233 -0.2626  0.3440  0.0768
 8628W        W12226  12.080   2.355   3.417 -0.2513 -0.3304  0.1111
 8629W        W12227   3.868   0.719  14.215 -0.1802  0.3472  0.2280
 8630W        W12228  12.432   1.575   1.696 -0.1363 -0.1819 -0.3296
 8631W        W12229  10.666   6.855   1.884 -0.2052 -0.1105 -0.2307
 8632W        W12230  13.662  10.174   1.415  0.0983  0.0041 -0.1048
 8633W        W12231   1.724   3.395  12.795  0.2223 -0.2349  0.0970
 8634W        W12232  11.576   7.610   5.406  0.2000 -0.0987  0.1180
 8635W        W12233   0.170   1.678   1.884 -0.1275  0.0720  0.2015
 8636W        W12234  13.834   0.048   4.305 -0.1126  0.1603  0.0666
 8637W        W12235   9.321  16.349   0.248  0.2408  0.1061 -0.0174
 8638W        W12236  10.365  14.780   3.169 -0.1876 -0.1328  0.0553
 8639W        W12237   0.018  13.086   3.156 -0.0968 -0.1294  0.2480
 8640W        W12238   2.561   9.275  13.945  0.2981  0.0616 -0.1000
 8641W        W12239   3.266  11.325  11.798  0.1464  0.3473 -0.1667
 8642W        W12240   6.671   7.101   3.228 -0.5106  0.1872 -0.0711
 8643W        W12241  11.367   5.107  13.008 -0.3750 -0.0161 -0.2323
 8644W        W12242   0.278   9.765  11.606  0.1421  0.1608  0.2590
 8645W        W12243  10.539  10.792  10.212 -0.0624 -0.2934  0.0613
 8646W        W12244   5.845  15.745   4.130  0.2010  0.0285 -0.0420
 8647W        W12245  13.200   4.644   0.593 -0.1046 -0.1097  0.2168
 8648W        W12246  13.707   1.337  13.807 -0.1036 -0.2339  0.3754
 8649W        W12247   1.669   0.917   3.424 -0.0313  0.1034  0.0069
 8650W        W12248  14.063   9.338   6.913 -0.1263  0.3863 -0.1920
 8651W        W12249   9.990  15.081   4.436  0.2498 -0.2263  0.2229
 8652W        W12250   3.080  11.968  14.845  0.0602 -0.0115 -0.2649
 8653W        W12251   7.455  16.158   6.030  0.1231 -0.3479  0.1718
 8654W        W12252  11.404   9.960  10.941 -0.0433 -0.2487 -0.3239
 8655W        W12253   6.714   0.884  12.664  0.0669  0.0307 -0.0621
 8656W        W12254   6.796  11.405  10.793  0.2332  0.0901  0.1344
 8657W        W12255  11.950   4.311   1.165 -0.1476  0.0503  0.1311
 8658W        W12256  12.882   3.906   9.801 -0.1399 -0.3851 -0.1220
 8659W        W12257   4.086  14.312   0.067  0.3406  0.1584  0.3963
 8660W        W12258   4.883  15.519   6.381 -0.0581  0.0930  0.0949
 8661W        W12259   0.370   0.674   9.299 -0.0571 -0.0045 -0.0646
 8662W        W12260  13.543   7.105   0.440  0.0918  0.1755 -0.2154
 8663W        W12261  15.911   5.895   3.300  0.1536  0.1436  0.0501
 8664W        W12262   3.528   1.561   9.829  0.0227 -0.2116  0.0107
 8665W        W12263   6.641   1.922   3.975  0.0511  0.1422 -0.2662
 8666W        W12264  10.131  10.462   1.736 -0.2718 -0.1480 -0.1174
 8667W        W12265  14.374   2.376  14.888 -0.0420 -0.0080  0.0572
 8668W        W12266  14.589   0.225  15.607 -0.2658 -0.2104 -0.0228
 8669W        W12267   9.309   1.146   4.046 -0.0069  0.5839  0.0778
 8670W        W12268   0.067   3.829  11.681 -0.0996  0.0272  0.1060
 8671W        W12269   7.918  13.072  11.100 -0.2297 -0.5362  0.0353
 8672W        W12270  14.696   2.182   6.912 -0.0116  0.0353  0.1909
 8673W        W12271   4.801   7.495   4.307 -0.2530  0.1769  0.0549
 8674W        W12272  13.023   2.662   7.605  0.1363 -0.1593 -0.0291
 8675W        W12273  11.416   3.039   8.183  0.2603  0.0298  0.0211
 8676W        W12274   0.415   2.617  10.810  0.0132 -0.0486  0.2575
 8677W        W12275   3.942   0.009   0.971 -0.1865 -0.2206  0.2362
 8678W        W12276   2.817  15.761   4.988  0.0392  0.2433  0.1534
 8679W        W12277   0.475  12.921  14.551  0.5131  0.1397 -0.3282
 8680W        W12278  10.353   0.490   1.722  0.1592 -0.1835 -0.0118
 8681W        W12279   6.999   6.475   2.552 -0.2545 -0.0177 -0.1965
 8682W        W12280   9.886   3.862   6.091 -0.0028  0.0216  0.0267
 8683W        W12281   6.429   0.348  11.373 -0.2069  0.0764 -0.4404
 8684W        W12282   9.807   9.817   8.669 -0.0846 -0.2503 -0.0707
 8685W        W12283   6.193   3.590  13.223  0.1227 -0.0097 -0.1098
 8686W        W12284  11.127   4.527  10.909  0.0188  0.1239 -0.1140
 8687W        W12285  10.600   4.014   2.626  0.0161  0.0659 -0.2497
 8688W        W12286   2.225  10.359  11.227  0.0565  0.0257 -0.0958
 8689W        W12287   4.277   1.657   9.122 -0.0303 -0.2683  0.1080
 8690W        W12288  15.566   4.364  12.339 -0.1453  0.2099  0.2823
 8691W        W12289  12.793   3.299  16.296 -0.1446 -0.0249  0.2471
 8692W        W12290   7.108   9.839   2.833 -0.0939 -0.2212  0.2193
 8693W        W12291  10.175   5.990  12.808  0.3101  0.1503 -0.2646
 8694W        W12292  11.760   5.637   2.327 -0.0750  0.0698  0.2728
 8695W        W12293   9.081  11.535   2.405 -0.0122  0.1438 -0.0390
 8696W        W12294   6.421  10.115   2.069 -0.5601 -0.0623  0.4081
 8697W        W12295   7.883  10.564   7.274 -0.1402  0.0453 -0.1987
 8698W        W12296   3.634  12.817   0.065 -0.1588 -0.0437  0.1113
 8699W        W12297  15.733   9.425  10.230 -0.0470 -0.0553 -0.0690
 8700W        W12298   5.660  12.275  13.408  0.1403  0.2897  0.1484
 8701W        W12299   1.589  12.215   4.991 -0.0080 -0.1469 -0.2354
 8702W        W12300  14.312   7.194   5.461 -0.0117  0.1310 -0.0681
 8703W        W12301   7.196   7.764   3.293 -0.1740  0.0145  0.0359
 8704W        W12302  12.711  11.579  13.618  0.0290 -0.2557  0.1159
 8705W        W12303  10.010   1.613  11.647  0.0545  0.1276  0.3314
 8706W        W12304   5.690   6.435  15.637  0.0172 -0.0594 -0.0942
 8707W        W12305  14.353   6.694   4.108  0.0516 -0.2321  0.1693
 8708W        W12306   5.114  12.735  14.091  0.2135  0.0047  0.1545
 8709W        W12307   6.917  15.679  13.925 -0.0371  0.0056 -0.1567
 8710W        W12308   5.679   9.879   7.503  0.1359  0.1708 -0.2060
 8711W        W12309  11.617  12.775   4.933 -0.0305  0.2215  0.1023
 8712W        W12310  15.338   0.720   8.345  0.2140 -0.0877 -0.0953
 8713W        W12311   5.679   5.837   4.887  0.3116  0.1185 -0.2255
 8714W        W12312   7.472   5.258   1.748  0.2677  0.3722  0.2207
 8715W        W12313  13.976   1.675   2.282  0.0975  0.1219  0.0287
 8716W        W12314  16.368   5.428   6.952  0.1700  0.2204 -0.0695
 8717W        W12315   4.080   6.677   8.297 -0.0479 -0.1305 -0.5204
 8718W        W12316  12.447   3.649  13.670  0.0977 -0.2790 -0.0930
 8719W        W12317  16.324   4.028  14.543  0.0479  0.1658  0.1348
 8720W        W12318   8.535   7.444  11.590 -0.2672 -0.0659  0.1405
 8721W        W12319  11.310   9.161   0.279  0.2749 -0.3812 -0.0344
 8722W        W12320   6.140  14.711   4.918  0.0759  0.0401 -0.1588
 8723W        W12321   1.640  16.381  16.213 -0.2356  0.0750  0.1092
 8724W        W12322   3.515   8.787  13.239 -0.1174  0.1267  0.0433
 8725W        W12323   8.166  15.669   5.278  0.0577  0.0974  0.2578
 8726W        W12324  16.275   6.999   0.124  0.0213  0.4022  0.4086
 8727W        W12325   5.906   5.053   6.139 -0.1118  0.1983 -0.0988
 8728W        W12326   7.536   1.493   7.832  0.2946  0.0065 -0.0878
 8729W        W12327  15.917  13.370   6.281  0.4459  0.1435 -0.0387
 8730W        W12328   8.459   3.761   6.326 -0.0203  0.1485 -0.0743
 8731W        W12329  13.348   8.343  13.264 -0.1296 -0.0357  0.0424
 8732W        W12330   6.542  12.114  15.287  0.1235 -0.1696  0.2846
 8733W        W12331  14.523   9.395  13.937 -0.0758  0.3300 -0.0428
 8734W        W12332  10.761  14.915   7.609 -0.2177  0.0193  0.0253
 8735W        W12333  12.239   2.189   6.555 -0.1995  0.0803 -0.3614
 8736W        W12334   2.297  15.708   1.703  0.0747  0.0325  0.0834
 8737W        W12335   9.785  15.344  15.220  0.0678 -0.0657 -0.1738
 8738W        W12336  12.526   3.196  13.473 -0.0590  0.2865  0.2602
 8739W        W12337   8.845   3.807   6.744 -0.1836  0.0309 -0.1826
 8740W        W12338   6.693  14.940   8.528 -0.1219  0.0056 -0.1175
 8741W        W12339  11.019   8.730   9.815  0.0821  0.1248 -0.0798
 8742W        W12340   7.223   0.879   1.651 -0.0491  0.0797  0.2580
 8743W        W12341   4.745   2.699   5.194 -0.0793 -0.0732 -0.0857
 8744W        W12342  12.315   3.280   6.122 -0.2054 -0.2389 -0.1390
 8745W        W12343   8.748  12.231  15.854  0.2571 -0.1690  0.0934
 8746W        W12344   5.538   1.293   3.662 -0.1903  0.2288 -0.0887
 8747W        W12345   5.998  12.155   5.853 -0.1917  0.0389 -0.1532
 8748W        W12346  10.719   2.781   7.686  0.0814 -0.1582 -0.3123
 8749W        W12347   7.601   0.243   5.243 -0.2059 -0.2518 -0.0331
 8750W        W12348   5.427   8.007   6.384 -0.0838 -0.0820 -0.1300
 8751W        W12349  13.400  13.740  15.028  0.2165 -0.1832  0.1572
 8752W        W12350  10.595  13.175  13.370 -0.1366  0.1471 -0.1500
 8753W        W12351   7.039   2.032  16.316  0.1321  0.2037 -0.0874
 8754W        W12352   0.746  14.844   9.491  0.0233 -0.2923 -0.2127
 8755W        W12353  15.363  12.545  12.466  0.1174  0.0001  0.1004
 8756W        W12354   9.288   6.106   4.231 -0.0023  0.1949 -0.1302
 8757W        W12355  10.308   3.074  11.616  0.0444 -0.2137  0.3188
 8758W        W12356   9.898  10.443   5.353  0.3080  0.0065  0.0124
 8759W        W12357   2.262   3.481  15.883  0.0280  0.0902 -0.4103
 8760W        W12358  10.047  11.444  13.616 -0.2521  0.3271 -0.3358
 8761W        W12359   9.708  13.569   5.117  0.1234  0.1295 -0.0589
 8762W        W12360   7.789  12.835   0.970 -0.0094  0.2065  0.0303
 8763W        W12361   8.383  12.569   7.610  0.1555  0.2602 -0.2128
 8764W        W12362  15.383   2.207   6.623 -0.1771 -0.3184 -0.3054
 8765W        W12363  13.335  15.756   2.554  0.1935 -0.1249 -0.2921
 8766W        W12364  15.878   6.296   2.015 -0.0158  0.1308 -0.0356
 8767W        W12365   4.379   1.386  13.507 -0.1049  0.3072  0.0602
 8768W        W12366   8.372   1.022   0.252 -0.2294  0.0686 -0.0369
 8769W        W12367   2.427  12.698  10.843  0.0355 -0.1509  0.5364
 8770W        W12368  11.274   7.161   5.124 -0.0297 -0.3022  0.0879
 8771W        W12369   1.758  16.296   6.620  0.0376 -0.2640 -0.0330
 8772W        W12370  14.213   6.603   4.660  0.2438  0.0631 -0.2770
 8773W        W12371   3.891   2.208   8.954 -0.2111 -0.1316 -0.0638
 8774W        W12372  12.571   5.468   2.971  0.0325  0.2194 -0.1027
 8775W        W12373   5.180   6.192  11.796  0.0239 -0.1718  0.2561
 8776W        W12374  15.555   6.066   9.427 -0.1060 -0.2719  0.1601
 8777W        W12375  11.772   0.435   4.698  0.1370  0.2893 -0.0806
 8778W        W12376   2.492   2.869  13.651  0.1918  0.0563  0.0787
 8779W        W12377   8.834   7.649   9.833 -0.2422 -0.0530 -0.0481
 8780W        W12378  16.045   0.466   9.678 -0.1749  0.0658 -0.0566
 8781W        W12379   3.439  14.622   2.478 -0.2812 -0.0095 -0.2282
 8782W        W12380   7.211   4.183   7.772  0.2477  0.2297 -0.0483
 8783W        W12381  14.586   5.594   9.571  0.1056 -0.0076  0.0489
 8784W        W12382  15.383   8.769  10.697 -0.2121  0.1458  0.1283
 8785W        W12383  14.916   1.060   1.736  0.4177  0.1607 -0.1639
 8786W        W12384   3.170   0.788   1.180 -0.1028  0.1934 -0.1074
 8787W        W12385  15.282   9.565  12.768  0.0841 -0.0762 -0.1780
 8788W        W12386   3.728  14.832   2.864  0.0727  0.1680 -0.2555
 8789W        W12387  14.465  15.244   2.114 -0.0874  0.1568  0.1847
 8790W        W12388   5.747  14.385  13.127  0.0019  0.1583 -0.0108
 8791W        W12389  11.490   4.704  16.073 -0.0246 -0.5098  0.0891
 8792W        W12390   0.529   5.538  13.157 -0.1596  0.3438  0.3822
 8793W        W12391   4.681  10.000   5.993 -0.0051 -0.0847 -0.2130
 8794W        W12392   4.860  15.783  14.100 -0.0576  0.0531  0.1278
 8795W        W12393  12.052   4.309  13.859 -0.0974 -0.2561  0.0456
 8796W        W12394   8.790  15.235  16.233  0.0770  0.0499 -0.0879
 8797W        W12395   1.915  15.883  13.773  0.0962 -0.1115 -0.0449
 8798W        W12396  12.515  10.183  12.540  0.0662 -0.1102 -0.3397
 8799W        W12397  14.401   6.081  12.832  0.0579 -0.0064 -0.1750
 8800W        W12398   8.909  11.382  14.245 -0.2006 -0.1365  0.1845
 8801W        W12399   6.693  14.320   1.983 -0.0292  0.4142 -0.3945
 8802W        W12400   8.302   3.628   2.299 -0.2301  0.0893  0.2756
 8803W        W12401   2.734   6.662   3.634 -0.0628 -0.1069  0.1186
 8804W        W12402   9.281   8.550  11.463 -0.2593  0.1785  0.4260
 8805W        W12403   0.812   8.158   4.965  0.0829 -0.0579  0.2468
 8806W        W12404   4.588   9.084   2.788 -0.0760 -0.0562  0.2569
 8807W        W12405  15.318   9.400   2.667 -0.1043  0.4534  0.1228
 8808W        W12406   1.060  12.312  14.249 -0.1386  0.1839 -0.1964
 8809W        W12407   8.486   4.666   3.769  0.2405 -0.0564  0.1106
 8810W        W12408   8.994  16.125  16.297 -0.4871 -0.2078 -0.1458
 8811W        W12409   9.328   8.534  13.500 -0.1370 -0.0695 -0.2185
 8812W        W12410   4.046  13.031   2.794 -0.1392  0.0051 -0.0878
 8813W        W12411   0.611  14.002   4.366 -0.1935  0.0977 -0.1891
 8814W        W12412   3.233   9.707   5.209  0.2672 -0.1218 -0.0618
 8815W        W12413  13.071   7.508   7.177  0.1802  0.1936  0.0319
 8816W        W12414  13.271   0.898   6.128 -0.1594 -0.1388  0.0953
 8817W        W12415   9.403   4.918  11.405  0.1529  0.1538 -0.1363
 8818W        W12416  14.269   7.672  14.644  0.1195  0.2676  0.3277
 8819W        W12417  14.505   4.473  11.152 -0.0660  0.0063 -0.0936
 8820W        W12418  11.219   7.597   3.091 -0.1822  0.1186 -0.0107
 8821W        W12419   6.703  16.162  12.172  0.1419 -0.3071 -0.0113
 8822W        W12420   2.767  15.687  10.441  0.0558 -0.2824  0.1110
 8823W        W12421  11.078  14.219   2.878 -0.1023  0.0609  0.0050
 8824W        W12422   2.079  12.904  10.069  0.0175  0.2685 -0.4141
 8825W        W12423  10.926   8.652   7.270 -0.1446  0.0740 -0.2781
 8826W        W12424  14.137   9.329  13.323 -0.0211  0.0204  0.2248
 8827W        W12425  12.274   0.015   6.673 -0.2128 -0.2052  0.2857
 8828W        W12426  15.882   2.777   2.022  0.2426 -0.1475  0.4516
 8829W        W12427   6.715   3.588   2.811 -0.0208 -0.1150  0.1457
 8830W        W12428   6.176   5.260   1.102  0.2079 -0.2060 -0.0899
 8831W        W12429   9.957  11.006  11.570  0.4195 -0.2025  0.1889
 8832W        W12430  13.411   1.841   5.746 -0.2982 -0.1540  0.2828
 8833W        W12431  13.080  10.322   6.890  0.0181 -0.1455  0.2087
 8834W        W12432  15.461   2.399   0.330 -0.0722  0.0987  0.1247
 8835W        W12433   9.809   0.214   3.219  0.2301 -0.2377 -0.2780
 8836W        W12434  11.348   0.177   2.303  0.2107 -0.0267 -0.3570
 8837W        W12435  12.316   3.735  14.658 -0.1647  0.0253 -0.0752
 8838W        W12436   1.450   6.811  10.156  0.2903  0.0192  0.0363
 8839W        W12437   0.149  11.215   0.887  0.0021 -0.2543  0.3125
 8840W        W12438   5.867   6.896   6.237  0.3878 -0.3767 -0.1449
 8841W        W12439   2.779  10.108  13.680 -0.5348  0.0350 -0.0661
 8842W        W12440   2.306   0.045   6.725 -0.0594 -0.0495 -0.2951
 8843W        W12441  10.172   5.277   7.514  0.0382  0.0437 -0.0905
 8844W        W12442   2.232   5.308   1.830 -0.2573  0.3335  0.0844
 8845W        W12443   6.370   9.717  13.914  0.0245 -0.1810  0.0000
 8846W        W12444   2.445   9.050  13.359 -0.1748 -0.0299  0.0621
 8847W        W12445   4.193   2.646  12.661  0.3503 -0.3382 -0.1933
 8848W        W12446   5.097   6.976   5.474 -0.1734 -0.1659 -0.1022
 8849W        W12447  14.322   8.763  16.253 -0.3121 -0.3966 -0.1839
 8850W        W12448  15.161  15.193   3.885  0.1542 -0.2829  0.0739
 8851W        W12449  10.393  14.699   0.504 -0.2168  0.0142 -0.2918
 8852W        W12450  15.160   8.600   2.045  0.2284  0.1125  0.0036
 8853W        W12451   5.064   8.409   9.073  0.4179 -0.1981 -0.1102
 8854W        W12452   2.690   4.308  12.165 -0.0004 -0.3692  0.0986
 8855W        W12453   1.547  10.303   1.586  0.0805 -0.1159  0.1785
 8856W        W12454  14.902   6.345   6.650 -0.1353  0.3001  0.1003
 8857W        W12455   0.632   2.749   4.049  0.3173  0.0770  0.1857
 8858W        W12456   8.898   5.321   4.856 -0.2193  0.0088 -0.2012
 8859W        W12457   9.464  15.735  14.247 -0.2196  0.0507 -0.0608
 8860W        W12458  12.410  16.114  10.008 -0.3125  0.2589  0.0608
 8861W        W12459   8.505   1.304   8.651  0.3268  0.3544  0.2561
 8862W        W12460  14.442   4.120  15.696 -0.2074 -0.0899 -0.3836
 8863W        W12461   8.087   0.777   9.026 -0.0356 -0.2006  0.1791
 8864W        W12462  13.304   5.101  11.760  0.0352 -0.1515  0.0127
 8865W        W12463   4.737   7.479   4.817  0.2825 -0.0717 -0.3053
 8866W        W12464   1.545  14.644   6.091  0.0893 -0.0269 -0.0336
 8867W        W12465   3.532   6.048   8.096 -0.2314  0.1829 -0.0778
 8868W        W12466   8.957   7.318  14.498 -0.1330 -0.2166  0.1284
 8869W        W12467   9.573   4.442   4.845 -0.0508 -0.0758 -0.1031
 8870W        W12468  12.782  11.999   0.205  0.0057  0.0588  0.0424
 8871W        W12469   2.231   3.940  15.324 -0.0820 -0.2657 -0.0061
 8872W        W12470  14.300  11.120  12.728  0.0853  0.0696 -0.0942
 8873W        W12471   2.879   5.013  14.822 -0.1199  0.0951  0.1350
 8874W        W12472   6.852   5.566   3.496 -0.1930 -0.0044 -0.1679
 8875W        W12473   6.286   4.207  10.428 -0.0449  0.0559  0.2564
 8876W        W12474   1.772   0.013   2.736 -0.0420  0.1037  0.2745
 8877W        W12475  10.086  12.266   4.420 -0.0129 -0.1778 -0.1065
 8878W        W12476  15.200  11.606   9.346  0.0598  0.1616  0.0371
 8879W        W12477   3.015  14.632  14.088 -0.2201 -0.1726  0.2350
 8880W        W12478  11.523  12.283   5.112  0.2194  0.0002  0.2739
 8881W        W12479   9.815  13.546   4.241 -0.0555  0.0566  0.1053
 8882W        W12480   4.110  14.723   4.284 -0.0236  0.0512 -0.3411
 8883W        W12481   3.374   7.598  14.507  0.0294  0.1801 -0.0740
 8884W        W12482  14.251   2.682  12.431  0.0144  0.3606  0.1594
 8885W        W12483   3.643   7.831   9.039  0.1746  0.0792  0.1683
 8886W        W12484   5.611   8.369  16.221  0.0498  0.1744 -0.2117
 8887W        W12485  14.935  10.455   9.875 -0.1818 -0.1376  0.1632
 8888W        W12486   1.691   8.088  11.248  0.1004  0.0557 -0.1888
 8889W        W12487   5.005   0.185  10.283  0.2152 -0.1276 -0.1511
 8890W        W12488   3.748   9.916  14.971  0.0909 -0.1891  0.1668
 8891W        W12489   6.276   6.873  12.124  0.0233  0.1077  0.3607
 8892W        W12490  13.873  12.630   5.153 -0.2345 -0.1221  0.1138
 8893W        W12491   0.830   4.977   7.552 -0.1327  0.2288  0.3259
 8894W        W12492  10.673  15.361  15.788 -0.1600  0.3376 -0.0071
 8895W        W12493  10.000   7.917  11.090  0.0583  0.1825  0.4515
 8896W        W12494  13.379  14.688  13.405  0.4376 -0.0525  0.1654
 8897W        W12495  12.903  15.600   5.461 -0.0906  0.0819  0.0055
 8898W        W12496   6.342   5.898   4.054 -0.1238  0.1372  0.0018
 8899W        W12497   8.617  14.504  15.606 -0.0660  0.1141 -0.3663
 8900W        W12498   4.503   1.108   6.639  0.2760 -0.0057  0.0143
 8901W        W12499   7.489   8.223  13.912  0.2729 -0.2352 -0.1754
 8902W        W12500   6.229  14.609   2.833 -0.0492 -0.0572  0.0327
 8903W        W12501   0.552  11.837   5.895  0.1231  0.1224 -0.3568
 8904W        W12502  15.386   0.677  13.276 -0.0856 -0.1695 -0.1607
 8905W        W12503   6.967  16.264   9.892  0.2197  0.1243  0.0301
 8906W        W12504   9.341   2.112  11.493  0.3679 -0.0422 -0.0490
 8907W        W12505  15.031  11.214   2.387 -0.2973  0.0030 -0.1910
 8908W        W12506   1.222  16.175  10.453  0.0410 -0.2848  0.0013
 8909W        W12507  14.025   2.578   0.238  0.1437 -0.0490 -0.4015
 8910W        W12508   4.131   8.783  15.540 -0.1603  0.0904 -0.0689
 8911W        W12509  12.002  15.129  14.930  0.2094 -0.0204 -0.2560
 8912W        W12510  15.244   0.844   4.035  0.4035  0.3508 -0.0935
 8913W        W12511  12.972  11.558   4.523  0.0374 -0.2976 -0.1314
 8914W        W12512  15.525   8.636  14.457 -0.1835  0.1716 -0.2854
 8915W        W12513   2.419   0.227  13.833 -0.0568 -0.0755 -0.0332
 8916W        W12514   0.326   0.598   8.643  0.2183  0.0558  0.0249
 8917W        W12515   9.751  12.780   7.566  0.0119  0.1890 -0.0183
 8918W        W12516   2.235   6.349   9.839  0.0293  0.1973  0.1035
 8919W        W12517  15.324  13.136  10.953 -0.1681 -0.1871 -0.0647
 8920W        W12518  10.529  16.207  10.469 -0.0438 -0.0975 -0.1132
 8921W        W12519   1.034   9.662   4.873  0.0927  0.0230 -0.0466
 8922W        W12520   0.874  15.889   0.582 -0.1641  0.0363  0.0588
 8923W        W12521  13.785  10.820   3.667  0.0468 -0.0263 -0.1098
 8924W        W12522  12.054  13.154   6.148 -0.1629  0.0618 -0.0519
 8925W        W12523  13.950   9.545  15.126  0.2005 -0.0264 -0.1433
 8926W        W12524   5.448   7.049  10.588 -0.1772 -0.2837 -0.4143
 8927W        W12525  15.307   6.936   1.023  0.2226  0.2503  0.0288
 8928W        W12526  13.996  10.856   1.870 -0.0279  0.1575  0.1343
 8929W        W12527   8.950   0.025  14.823 -0.2336 -0.1415 -0.1204
 8930W        W12528  14.437   5.330   4.857 -0.1217 -0.1187  0.1152
 8931W        W12529   8.725   1.028   2.172  0.3123 -0.1111 -0.0670
 8932W        W12530   4.348  12.554   6.329 -0.4079  0.1703  0.1897
 8933W        W12531  10.002   7.951   2.267 -0.1656  0.4112 -0.0651
 8934W        W12532   4.863   3.982   9.425 -0.1766  0.1904 -0.2586
 8935W        W12533   5.908  10.382  10.758 -0.1971 -0.0788 -0.1057
 8936W        W12534   2.384   5.714   6.293 -0.0870 -0.0078  0.1730
 8937W        W12535  15.579   3.827   4.429 -0.1428  0.3717 -0.1121
 8938W        W12536  10.876   7.126  11.788  0.0048  0.2025 -0.3723
 8939W        W12537   1.754   1.494   6.015  0.1767 -0.1881 -0.0106
 8940W        W12538   9.704  15.914  13.201  0.1994 -0.2837  0.0898
 8941W        W12539  15.043   1.566  12.156 -0.2717 -0.3810  0.2210
 8942W        W12540  14.249  10.905   4.630  0.2594 -0.2098  0.1024
 8943W        W12541   3.936   3.004   3.842 -0.0471 -0.0619 -0.1938
 8944W        W12542   3.245  12.304  14.008 -0.0952  0.1382 -0.3580
 8945W        W12543  10.919  13.537  15.627 -0.2911  0.0067 -0.1742
 8946W        W12544   0.878   2.089   3.439 -0.1383  0.0740 -0.1114
 8947W        W12545   8.216   7.437   7.161 -0.1013  0.0116  0.2919
 8948W        W12546   2.992  15.354  10.726  0.2715 -0.0110  0.0931
 8949W        W12547  10.442  13.225   5.653  0.0637  0.1223  0.1598
 8950W        W12548  11.436   2.141  10.334  0.3081 -0.1688 -0.1505
 8951W        W12549   1.548  11.121  10.478 -0.2019 -0.1547 -0.1465
 8952W        W12550  16.104   6.356   3.374 -0.0238 -0.2278  0.1129
 8953W        W12551   3.826   5.660  10.726 -0.1148 -0.3988 -0.2241
 8954W        W12552   0.654   2.300  12.164  0.1820  0.0624  0.0758
 8955W        W12553   0.119   7.222  11.368  0.2056 -0.0730  0.1505
 8956W        W12554  14.795  11.807  14.000  0.2711  0.0569  0.2046
 8957W        W12555  10.219   5.648   3.142  0.1635  0.0645 -0.0117
 8958W        W12556   1.994   4.131   0.342  0.2216 -0.3116 -0.1290
 8959W        W12557  11.887  15.583   9.696  0.0787  0.3091  0.1870
 8960W        W12558   0.220  14.678   1.964  0.0460 -0.1128  0.0604
 8961W        W12559   3.914  13.801  11.543 -0.0491  0.0550 -0.0285
 8962W        W12560  11.837   9.041   1.179  0.0869  0.3062  0.2298
 8963W        W12561   8.936   2.896   6.295  0.2069  0.1361  0.3068
 8964W        W12562  14.326   1.792   1.007 -0.1107 -0.1421 -0.0653
 8965W        W12563   6.453   6.385   4.989  0.1221 -0.0577  0.1194
 8966W        W12564  13.734   6.297  15.208 -0.0681 -0.2547  0.0698
 8967W        W12565   5.952   1.703   8.588 -0.1544  0.2709 -0.0526
 8968W        W12566   9.624   3.688   0.314 -0.1439 -0.1203 -0.1005
 8969W        W12567  14.148   3.240   8.106 -0.0437  0.2675  0.2566
 8970W        W12568  15.872   5.207   1.920 -0.2472  0.1239 -0.2408
 8971W        W12569  15.731   9.084   0.921  0.0915 -0.0495  0.1964
 8972W        W12570  11.968  14.241  15.187 -0.0504 -0.0221 -0.1798
 8973W        W12571   3.262   8.883   7.085  0.1828  0.0941  0.0205
 8974W        W12572   5.035  10.573   2.933  0.0978 -0.0506  0.1292
 8975W        W12573   2.015  14.222   3.293 -0.1140 -0.0703 -0.1930
 8976W        W12574  14.854  12.268   5.033  0.3807 -0.2211  0.3217
 8977W        W12575   1.792   5.295  13.669  0.2195 -0.0648 -0.0906
 8978W        W12576   1.427   6.360  12.816  0.0376  0.2087 -0.2868
 8979W        W12577   2.068   5.988  11.228  0.1344 -0.2550  0.0328
 8980W        W12578  15.262  14.402   9.018 -0.0813  0.1786 -0.2169
 8981W        W12579   5.459   5.658   3.084  0.0461 -0.0188 -0.1806
 8982W        W12580   2.859   6.067  15.646 -0.1023  0.1662 -0.0514
 8983W        W12581  10.599  15.861   9.828 -0.2444 -0.1853  0.0923
 8984W        W12582  15.916  10.503   0.647  0.1928 -0.1907  0.1226
 8985W        W12583  14.336   3.995   0.528 -0.1267 -0.1028 -0.0023
 8986W        W12584  12.539   4.231  14.877  0.3229  0.2700  0.3246
 8987W        W12585   1.996  11.324   0.936  0.0945 -0.1137  0.2146
 8988W        W12586  11.394   7.020  12.876 -0.2175  0.3496  0.0564
 8989W        W12587   9.177   6.585  13.181  0.1293  0.0894  0.1692
 8990W        W12588  16.252  14.648   7.471 -0.1099  0.1037  0.0725
 8991W        W12589   2.357  12.085   6.183  0.1246  0.1565  0.5052
 8992W        W12590  12.247   1.707   4.981  0.2399 -0.0506 -0.2777
 8993W        W12591  10.774   4.245   2.226  0.2334  0.2629  0.2897
 8994W        W12592   0.778  13.820   4.845 -0.1373  0.0656 -0.1890
 8995W        W12593  14.946  11.598   3.660  0.1157  0.1282  0.1711
 8996W        W12594   6.345   4.638  13.906  0.0109 -0.0039  0.0781
 8997W        W12595  10.482   1.750   6.656  0.1823  0.1478  0.0166
 8998W        W12596  11.136  16.128   4.554  0.0008  0.0655  0.0077
 8999W        W12597  15.648   2.217   7.184 -0.1236  0.0426 -0.0715
 9000W        W12598  10.914   5.309   1.746  0.2957  0.4212  0.0695
 9001W        W12599  11.321  12.387   0.349  0.1583  0.1805 -0.0119
 9002W        W12600  10.529  12.164  16.010 -0.0368 -0.0446  0.0149
 9003W        W12601  12.426   5.467   7.055  0.0268  0.1332 -0.1581
 9004W        W12602  12.270   9.694   2.443 -0.0647 -0.3606 -0.0363
 9005W        W12603  12.738  14.084  14.566  0.1882 -0.0780 -0.1653
 9006W        W12604   9.711   1.585   4.256  0.1017 -0.1890 -0.1125
 9007W        W12605  10.649  10.939  11.778  0.0470  0.1526  0.1478
 9008W        W12606  13.159   9.346  14.701  0.1390  0.1173 -0.1616
 9009W        W12607   6.832   7.679   8.903  0.0802 -0.0056  0.1407
 9010W        W12608  12.108   4.254   8.644 -0.1332 -0.1354  0.1885
 9011W        W12609   6.437   4.305   6.403  0.1324  0.0350  0.1151
 9012W        W12610  15.922  14.450   0.903 -0.0813 -0.1266  0.1189
 9013W        W12611  12.667   3.981   3.780 -0.0444 -0.3412 -0.0362
 9014W        W12612   9.800  10.362  16.251  0.2761  0.3294  0.0636
 9015W        W12613  10.402   9.980   7.091 -0.1442  0.0935  0.2229
 9016W        W12614   0.462  10.012   8.744  0.1967 -0.0609  0.2354
 9017W        W12615   0.407   3.118   1.687 -0.1716  0.0158  0.0496
 9018W        W12616   3.432   4.315   3.900 -0.1729  0.0744  0.0742
 9019W        W12617   7.989  15.201   5.318 -0.1475 -0.2011 -0.0231
 9020W        W12618  11.787  10.988  12.609 -0.1476  0.2598  0.0498
 9021W        W12619   5.925   6.298   1.335 -0.1216 -0.1327 -0.1054
 9022W        W12620   8.082   4.313  14.566  0.0258  0.1623  0.0820
 9023W        W12621  13.814  15.227   8.495 -0.0503 -0.0485  0.1703
 9024W        W12622   9.675  15.508   0.842 -0.0888  0.0648 -0.3933
 9025W        W12623   1.930  13.333   7.929 -0.0879  0.0265  0.1333
 9026W        W12624  12.366  10.199  13.111  0.1219  0.1581 -0.0381
 9027W        W12625  15.781   8.884   9.368 -0.0418 -0.3493 -0.1853
 9028W        W12626   0.889  16.154  15.369  0.1244 -0.4446  0.0605
 9029W        W12627   3.069   4.603  16.244  0.3934 -0.1262  0.0442
 9030W        W12628   7.415   9.123  11.252  0.2429 -0.0468  0.2339
 9031W        W12629  12.042   9.697  13.012  0.1321  0.0193 -0.2181
 9032W        W12630   8.804   6.611  14.908  0.1465  0.0942  0.1823
 9033W        W12631   7.072  10.405   5.920 -0.0968 -0.1774 -0.0623
 9034W        W12632   1.104   7.225  13.995 -0.2119 -0.0877 -0.4960
 9035W        W12633  11.128  11.570  15.013 -0.0277 -0.2160 -0.1784
 9036W        W12634   1.462   9.061  14.116 -0.1168  0.4415 -0.2446
 9037W        W12635   6.197  12.908   7.836 -0.0882  0.1936  0.3750
 9038W        W12636   1.286  10.784   8.263 -0.0090  0.0708 -0.2345
 9039W        W12637   8.460   2.987   7.524 -0.3930  0.2277  0.1310
 9040W        W12638  13.087   8.078   0.137  0.3661  0.4030  0.0664
 9041W        W12639  11.725  14.694   9.631  0.0189  0.1642 -0.0379
 9042W        W12640   8.208  13.749  10.674 -0.1087 -0.4418  0.0770
 9043W        W12641   8.313   7.088   6.161 -0.1690 -0.1346 -0.4159
 9044W        W12642  14.292   1.978  13.970  0.2086 -0.3844  0.2414
 9045W        W12643   0.816   7.547   2.867 -0.4107 -0.0444 -0.1650
 9046W        W12644   1.513  12.739  12.403 -0.0277  0.0549  0.0071
 9047W        W12645  11.811  16.262   6.798  0.2593 -0.1982 -0.2251
 9048W        W12646  10.498   8.447   5.553  0.0792  0.4296  0.2596
 9049W        W12647   3.992   6.601   9.672  0.3898 -0.1053 -0.0145
 9050W        W12648  14.903   1.503   9.813 -0.0331  0.1289 -0.0675
 9051W        W12649  12.743   5.794  13.223 -0.1951 -0.2411  0.1335
 9052W        W12650   3.721  12.240  14.095 -0.1036  0.0890  0.0230
 9053W        W12651  14.347   0.585   4.706 -0.1123 -0.2388  0.0891
 9054W        W12652   6.720   1.219  10.423  0.1348  0.1526  0.0374
 9055W        W12653   3.531   9.452  14.993 -0.0568 -0.3136 -0.0824
 9056W        W12654  14.186   8.102   7.257  0.1387 -0.2507  0.0782
 9057W        W12655  12.482   7.518  14.942  0.3389  0.2443 -0.0686
 9058W        W12656   5.721  15.036   8.857  0.3717 -0.3015 -0.1658
 9059W        W12657   1.996  13.518   6.667  0.1182 -0.0659  0.2350
 9060W        W12658   7.625  11.953   2.411 -0.2628  0.0508  0.2142
 9061W        W12659  12.164  12.547   2.566 -0.3717  0.2466 -0.5562
 9062W        W12660   2.596  12.690   7.392 -0.0607  0.4103  0.0546
 9063W        W12661   0.353   6.025   2.908  0.1329  0.0127 -0.0627
 9064W        W12662  12.645   1.761   8.832 -0.0407  0.2882  0.1765
 9065W        W12663   5.434   4.314  13.003  0.0086 -0.0110  0.2808
 9066W        W12664   0.253  15.249  14.125 -0.0925  0.2294 -0.0807
 9067W        W12665   4.415   1.070  13.147  0.2640  0.0634  0.1879
 9068W        W12666   6.262   4.244  11.936 -0.0542 -0.1241  0.0593
 9069W        W12667  16.393  16.062   6.451  0.0819 -0.0114 -0.1937
 9070W        W12668   8.144  14.181   6.967 -0.0959  0.1454  0.1724
 9071W        W12669  10.519   5.403  15.131  0.1689 -0.0402  0.0906
 9072W        W12670   6.658   1.733  15.143  0.2595 -0.0905  0.0934
 9073W        W12671   4.154   3.728   7.677  0.1919 -0.1230  0.0614
 9074W        W12672   4.705   9.236   3.255  0.0628  0.0714 -0.1856
 9075W        W12673   4.011  13.488   9.233 -0.2665 -0.0684 -0.0586
 9076W        W12674  11.136   5.786  14.186 -0.0364  0.0706  0.3407
 9077W        W12675   8.415   3.160  11.183  0.2029  0.0275 -0.0793
 9078W        W12676   6.092   4.015   9.416 -0.2925 -0.4336  0.0409
 9079W        W12677   9.232   6.183   8.118 -0.0878 -0.0004  0.0245
 9080W        W12678   9.618   0.357   7.108 -0.1937  0.0834  0.2894
 9081W        W12679   2.062   5.147   5.671  0.1334 -0.1305  0.0140
 9082W        W12680   6.951  10.309  12.334 -0.2029  0.0458  0.2140
 9083W        W12681   8.275   4.361  15.011 -0.1220 -0.1856  0.2723
 9084W        W12682   1.938   4.619  11.844 -0.4080  0.0217 -0.1995
 9085W        W12683   6.658   5.855   0.806 -0.0238  0.5179  0.1374
 9086W        W12684   1.451  15.372  15.611  0.0393 -0.0281  0.3868
 9087W        W12685   5.026  15.503  15.649  0.1115 -0.0216  0.3055
 9088W        W12686   8.923   1.322   7.459  0.3583 -0.0944 -0.0581
 9089W        W12687  16.068   2.857   5.279  0.0236  0.0835  0.1504
 9090W        W12688  10.207  10.360   2.287  0.0290 -0.4842 -0.0192
 9091W        W12689  11.468   2.139   1.360 -0.1739  0.7187 -0.0669
 9092W        W12690   8.731   1.663   6.592 -0.1317 -0.1018 -0.2225
 9093W        W12691   8.430   3.412  14.726 -0.0595  0.2321  0.1240
 9094W        W12692   6.919   8.471  11.533 -0.2971 -0.5342 -0.0307
 9095W        W12693   4.189  15.241   7.611 -0.0572 -0.0018  0.1876
 9096W        W12694   0.773   1.153   6.109  0.0706 -0.1300 -0.1043
 9097W        W12695  13.556  15.480   0.197 -0.2211  0.2140  0.1066
 9098W        W12696   6.574  15.351   5.361 -0.0704  0.0148  0.2290
 9099W        W12697   5.727  15.433  15.868  0.1324  0.2011  0.3834
 9100W        W12698   0.308   2.104  11.780  0.0181 -0.1645 -0.1709
 9101W        W12699  12.784  15.080   8.933 -0.0570 -0.3797  0.0656
 9102W        W12700  10.563   5.004   9.926  0.2938 -0.1864 -0.2122
 9103W        W12701   9.692   0.736   6.328 -0.2304 -0.0611  0.0557
 9104W        W12702  14.596  13.123  12.137  0.3348  0.1292  0.0401
 9105W        W12703  11.587   8.662   0.397 -0.2040 -0.2088 -0.0600
 9106W        W12704   0.465  14.553  12.748  0.0677  0.0013 -0.4110
 9107W        W12705   6.561   1.225   9.929 -0.2178 -0.5915  0.0328
 9108W        W12706  11.450  15.915  15.811 -0.1361 -0.1192 -0.0910
 9109W        W12707   0.064   6.422   3.797 -0.0448  0.3489  0.1378
 9110W        W12708   4.006   3.906   6.833  0.1559 -0.0318  0.2154
 9111W        W12709   8.582   3.731   5.796  0.0192  0.0810 -0.3488
 9112W        W12710   8.024  16.318   1.082  0.3728  0.2625  0.1389
 9113W        W12711   6.093  10.740   4.645 -0.1870 -0.4182 -0.0696
 9114W        W12712  13.087   3.863   7.095 -0.0174  0.0683  0.1921
 9115W        W12713  14.450   0.312   8.174  0.1925  0.0550  0.0449
 9116W        W12714  13.330  11.264   2.402  0.3826  0.2930 -0.0790
 9117W        W12715  16.359   0.761   1.312 -0.1894 -0.0685  0.3252
 9118W        W12716  14.538   0.037  11.915  0.1850  0.3151  0.0332
 9119W        W12717  14.480  15.379   2.606  0.1659  0.1194  0.2763
 9120W        W12718   2.761  16.160   2.956  0.0368  0.0957  0.3740
 9121W        W12719   9.356  10.068   6.857  0.1068  0.2811 -0.3476
 9122W        W12720   0.363   0.546  11.920  0.0030  0.0111 -0.0321
 9123W        W12721   2.351   3.929   2.583 -0.0456 -0.1037  0.1876
 9124W        W12722   3.426  16.228   4.312  0.0423  0.3247 -0.0593
 9125W        W12723   9.753  10.791   1.846 -0.0913 -0.1282 -0.2706
 9126W        W12724   6.588   1.971   6.820  0.1216 -0.0347 -0.0253
 9127W        W12725   7.445  11.277   4.940  0.0009  0.0115  0.1640
 9128W        W12726   6.268   6.747   9.949 -0.0097 -0.1036  0.1383
 9129W        W12727  11.967  12.475   4.230 -0.1046 -0.4481  0.2121
 9130W        W12728   8.943  14.869  12.954  0.1001  0.1157 -0.0322
 9131W        W12729  15.686   3.483   9.962 -0.1620 -0.4602 -0.0104
 9132W        W12730   7.913  15.953  15.548 -0.2188  0.1832 -0.2595
 9133W        W12731  14.555  11.957   8.460  0.0129 -0.2410  0.2616
 9134W        W12732   9.129   1.631  12.733  0.3178 -0.1321  0.1703
 9135W        W12733   0.822  14.748   7.213  0.5242 -0.1982 -0.2644
 9136W        W12734   6.237  11.504  11.605  0.0622  0.0045 -0.0819
 9137W        W12735  12.263   1.692   5.462  0.0422  0.0145 -0.0315
 9138W        W12736  16.309   9.459  14.515  0.1862  0.1054 -0.2734
 9139W        W12737   2.783   1.112  10.177  0.1541 -0.0458 -0.0402
 9140W        W12738  14.089   4.924  11.279 -0.0860  0.1647 -0.1149
 9141W        W12739   3.555   7.007  11.004  0.0813  0.2074 -0.0108
 9142W        W12740   1.120   5.772  11.013 -0.1092  0.0915  0.0666
 9143W        W12741   2.719   2.522  11.014  0.0416 -0.1996  0.0285
 9144W        W12742  13.979   7.455   6.593 -0.1360 -0.1980 -0.0739
 9145W        W12743   8.892  10.892  11.571  0.2014  0.2773 -0.2099
 9146W        W12744  15.077  14.516   3.069 -0.2850  0.1418 -0.0328
 9147W        W12745   8.487  13.303   9.731  0.2160  0.0203  0.0187
 9148W        W12746   4.115  13.542   0.222 -0.3382 -0.0370  0.1904
 9149W        W12747   5.840   0.858   1.272  0.1278  0.1179 -0.0493
 9150W        W12748  11.836  13.267  11.431  0.1782 -0.0046  0.0122
 9151W        W12749   2.520   1.113   3.570  0.1992  0.0186  0.0601
 9152W        W12750   1.282  14.316   5.422 -0.1493 -0.1956 -0.3621
 9153W        W12751  11.351  13.383   6.881 -0.0229 -0.0043  0.0039
 9154W        W12752   6.758   5.941   2.847  0.2431 -0.1701 -0.1556
 9155W        W12753   1.305  11.544   7.048 -0.0607 -0.1233 -0.1234
 9156W        W12754   1.429  15.314   5.854  0.1418  0.2633 -0.0949
 9157W        W12755   8.315  14.269   1.275  0.3135 -0.2649  0.0996
 9158W        W12756   7.114  15.700  10.470 -0.1207 -0.1942 -0.0650
 9159W        W12757  16.143   2.848   9.219 -0.1395 -0.1195  0.1598
 9160W        W12758   2.217   6.967   1.719  0.1398  0.3828  0.0767
 9161W        W12759   2.662   9.508   1.109 -0.1058  0.0753  0.4270
 9162W        W12760   0.205   3.363  10.141 -0.0860  0.1242 -0.0292
 9163W        W12761   3.674   9.958  12.664 -0.2875 -0.0601 -0.2056
 9164W        W12762  15.967  11.416   1.921  0.0259 -0.3485 -0.0477
 9165W        W12763   6.596  10.350   5.974 -0.0288 -0.1702 -0.0898
 9166W        W12764   7.699  11.031  13.349 -0.0771  0.0582  0.0040
 9167W        W12765   1.486   7.456  11.800 -0.0805  0.5371 -0.1851
 9168W        W12766   5.676   0.888   3.836 -0.0339  0.0846 -0.1311
 9169W        W12767   9.037   7.010   1.497 -0.0127  0.1735 -0.1077
 9170W        W12768   1.848  10.858   7.427  0.2214  0.0080  0.2485
 9171W        W12769   4.355  13.448  14.783 -0.0962 -0.1043  0.1343
 9172W        W12770  14.321  15.215   4.802 -0.2667 -0.2251  0.0603
 9173W        W12771   6.948  13.114  13.620  0.4942  0.1506 -0.0118
 9174W        W12772   3.918   5.357   1.539 -0.3977 -0.1193  0.1579
 9175W        W12773  11.878  13.132   5.380 -0.0686  0.0688 -0.1320
 9176W        W12774   3.381   7.345   7.193 -0.0634  0.3445 -0.0519
 9177W        W12775   0.359  13.326   1.323  0.0062  0.1654 -0.0754
 9178W        W12776  11.780  13.225   7.164 -0.3563 -0.1105 -0.1247
 9179W        W12777   9.072  13.491  15.745 -0.1031  0.0929 -0.1633
 9180W        W12778  12.325   2.003   6.116 -0.1063 -0.3713  0.0974
 9181W        W12779   4.509   6.739  12.171 -0.1888 -0.0670  0.0382
 9182W        W12780  11.922  15.048   9.361 -0.2120  0.1403 -0.1292
 9183W        W12781   1.240   1.540   6.197 -0.0418  0.1617 -0.2695
 9184W        W12782  13.295   2.071  14.905 -0.0607  0.1545 -0.2106
 9185W        W12783  13.427  14.007  14.093 -0.1348  0.2497  0.0971
 9186W        W12784  16.311   4.855  10.306 -0.2113 -0.1728  0.1045
 9187W        W12785  13.586   7.170   8.190  0.0443 -0.3545  0.0498
 9188W        W12786   7.118   6.563   4.898 -0.1973  0.2576 -0.0742
 9189W        W12787   9.861   4.356  14.275 -0.0876  0.0769  0.0080
 9190W        W12788  12.653   9.548   3.244  0.1078 -0.1923 -0.0022
 9191W        W12789   3.829   0.659   3.830  0.0794 -0.2213 -0.0946
 9192W        W12790   0.528   5.683   2.615  0.3525  0.1938  0.0874
 9193W        W12791  11.373  16.344   9.394 -0.0973  0.0322  0.0552
 9194W        W12792   0.384   0.408   0.385  0.2506  0.0766  0.0576
 9195W        W12793   2.893   7.981   1.915  0.0156  0.1759 -0.0041
 9196W        W12794  12.455   6.283  15.224  0.1383  0.1152 -0.5537
 9197W        W12795   8.106   5.132  10.825 -0.2149 -0.0003  0.1390
 9198W        W12796   8.042  13.674  16.049  0.3573 -0.0539  0.2580
 9199W        W12797  13.091  10.696  10.952  0.1995 -0.0452  0.0511
 9200W        W12798   2.877  16.158   3.604  0.1208  0.3324 -0.1622
 9201W        W12799  13.692   9.724   5.331  0.1040 -0.2348  0.2869
 9202W        W12800  10.642   4.644  11.730 -0.0317  0.1112 -0.1081
 9203W        W12801   3.248  14.170  12.354  0.0921 -0.0734  0.1041
 9204W        W12802   5.579  15.375   4.918  0.0550 -0.3745 -0.2903
 9205W        W12803   1.145  13.273   6.808 -0.0625  0.0724 -0.3500
 9206W        W12804   5.159  14.008   8.861  0.2522 -0.0518 -0.0636
 9207W        W12805   9.656   1.050   4.499  0.1306  0.0556  0.1073
 9208W        W12806   1.608   6.372   8.650 -0.1410 -0.2456 -0.0864
 9209W        W12807  14.136   9.293   7.858  0.2351  0.0598 -0.0908
 9210W        W12808   4.359   5.773   9.289  0.0283 -0.1013  0.0254
 9211W        W12809   9.828  14.289   1.945  0.0682  0.1148  0.2161
 9212W        W12810   9.769   1.766   0.279 -0.3429 -0.1410  0.3329
 9213W        W12811  15.426   1.203   9.695  0.1633 -0.1969 -0.3927
 9214W        W12812   0.125   9.791   2.226 -0.1022  0.1752  0.2615
 9215W        W12813   1.213   0.675  12.151  0.2216  0.2032 -0.3731
 9216W        W12814  15.295  15.007  13.574  0.2398  0.4588 -0.0367
 9217W        W12815   3.841   3.485  12.766  0.1597 -0.2307 -0.1176
 9218W        W12816   6.939   0.551   4.658 -0.0709 -0.2195 -0.1090
 9219W        W12817   1.289   6.715  14.989 -0.3802  0.2074  0.2643
 9220W        W12818   9.104   5.706   8.141  0.3084  0.1088 -0.1079
 9221W        W12819  15.655   1.834   8.461 -0.0483 -0.1358  0.2634
 9222W        W12820   4.967   6.031   9.827 -0.1252  0.1945 -0.2117
 9223W        W12821  12.716   8.965   5.815 -0.3598  0.0065 -0.1848
 9224W        W12822   1.081   2.524  14.914  0.0613 -0.2323 -0.2461
 9225W        W12823   2.603   6.751  14.361 -0.1057 -0.0741 -0.1703
 9226W        W12824  12.364  11.549   1.435  0.3693  0.1194 -0.2777
 9227W        W12825  15.826   6.216  16.048 -0.0096  0.0945  0.3446
 9228W        W12826  11.392  10.823   0.478 -0.3106 -0.0961  0.2998
 9229W        W12827   0.915  11.232   1.632  0.1992 -0.0529 -0.0335
 9230W        W12828   9.802  13.140  15.912 -0.0702  0.1866  0.2010
 9231W        W12829   1.166   3.363  15.187 -0.0637  0.0690 -0.4007
 9232W        W12830  10.891  10.005  10.117 -0.1685  0.2117 -0.0059
 9233W        W12831  11.658   2.313  11.644 -0.1804 -0.1112 -0.0057
 9234W        W12832  11.018   7.988   3.867  0.0189 -0.0280  0.0898
 9235W        W12833  12.013  14.327   2.828  0.1703 -0.2279 -0.0681
 9236W        W12834  10.076  14.116   0.055  0.0805  0.2010 -0.0664
 9237W        W12835  11.274   8.914  14.069  0.0768 -0.2073  0.0655
 9238W        W12836   0.950  14.563  12.534  0.1337 -0.0182 -0.1931
 9239W        W12837  12.332  15.822   5.402  0.0400  0.2831 -0.0260
 9240W        W12838   8.149   0.463  14.977 -0.0838 -0.1979  0.0323
 9241W        W12839  13.405  14.413   2.434 -0.1312  0.1945  0.0388
 9242W        W12840   2.401   4.952  14.768  0.0211  0.2759 -0.0213
 9243W        W12841   9.782   2.201  12.349  0.2045 -0.3165 -0.0574
 9244W        W12842   2.336   5.270   0.782 -0.0115 -0.0923 -0.0854
 9245W        W12843   9.876   2.052  11.379  0.0083 -0.1520 -0.1249
 9246W        W12844   7.890   2.540  12.787  0.1051  0.0702  0.2144
 9247W        W12845  14.999  14.898   0.217 -0.1178 -0.1528 -0.0080
 9248W        W12846   3.956   9.458   3.229 -0.3358 -0.2499 -0.2835
 9249W        W12847   1.855  14.885   6.390 -0.0939  0.4172  0.1610
 9250W        W12848   4.163  13.537  11.170 -0.0526  0.2432 -0.2478
 9251W        W12849   7.072   1.154  10.079 -0.1980 -0.2643 -0.0797
 9252W        W12850   8.879   2.236   4.165  0.1369 -0.0748 -0.3030
 9253W        W12851  16.321   3.777   0.205  0.0243 -0.4096 -0.0396
 9254W        W12852   4.634  13.573  10.996  0.2699  0.1250 -0.1605
 9255W        W12853   3.398   3.237  12.804  0.3079 -0.2108  0.0911
 9256W        W12854   6.532   8.788   4.044  0.2316 -0.0560 -0.0525
 9257W        W12855  10.335   7.811  12.191 -0.2843  0.0142  0.1214
 9258W        W12856   8.947   3.313   5.604  0.1134  0.1825  0.0089
 9259W        W12857   6.373   0.786   1.309 -0.0008 -0.1179 -0.2991
 9260W        W12858   3.512  15.083   0.922  0.1679 -0.4798 -0.0121
 9261W        W12859   5.237   4.567   8.421  0.0956  0.0919 -0.0685
 9262W        W12860  12.610  10.888   1.854  0.2282 -0.0017  0.3310
 9263W        W12861   7.475  13.190   5.412 -0.0204  0.2971  0.1829
 9264W        W12862  11.029  11.494  12.143  0.0535 -0.4665 -0.1152
 9265W        W12863  13.771  16.092  12.249  0.0816  0.4130  0.0963
 9266W        W12864  14.534  12.994   9.844 -0.0191 -0.3293 -0.1532
 9267W        W12865  15.892   7.652  10.237 -0.0637 -0.1789  0.0473
 9268W        W12866  15.202   4.613  13.732  0.1846  0.0959  0.1201
 9269W        W12867  13.461   8.425   0.848  0.2911 -0.2521 -0.0961
 9270W        W12868   3.670   7.299  16.386 -0.1172  0.1780 -0.0025
 9271W        W12869   6.336  15.678   4.115 -0.0349 -0.2273  0.1350
 9272W        W12870  15.053   9.457  10.873  0.0514  0.0590  0.2294
 9273W        W12871   6.741  14.059   9.659 -0.0527  0.0946 -0.2691
 9274W        W12872  16.283   8.314   2.994 -0.1206 -0.1918  0.2040
 9275W        W12873  13.392   1.110   9.711 -0.3444  0.5251  0.0464
 9276W        W12874   8.552  14.718   2.584 -0.2001  0.1133 -0.0137
 9277W        W12875   7.852   6.043   2.140  0.3012  0.2870 -0.0523
 9278W        W12876   6.112   1.958  13.780  0.3367 -0.0882  0.1053
 9279W        W12877  15.152   4.035   9.147  0.1080  0.0483 -0.1694
 9280W        W12878  15.433   0.237   9.925 -0.2328  0.1541  0.4754
 9281W        W12879   1.404  13.494  10.058  0.0621 -0.5304 -0.0186
 9282W        W12880   8.693  10.554   7.951 -0.1503  0.1377  0.2079
 9283W        W12881   7.349   4.833  10.799 -0.1515 -0.2085  0.1853
 9284W        W12882   9.232  10.039  11.189 -0.0163 -0.2588  0.0739
 9285W        W12883   7.192   6.886  10.166  0.0385 -0.1146 -0.1252
 9286W        W12884   2.648   1.824   3.013 -0.2967  0.2118 -0.2642
 9287W        W12885   6.007   2.707   0.026 -0.2514 -0.1157  0.0347
 9288W        W12886  11.655  10.378   2.902 -0.0359 -0.0540 -0.1974
 9289W        W12887  12.623  13.114  13.085  0.1653 -0.3102  0.0510
 9290W        W12888  12.545  15.341   3.679  0.1218 -0.2239 -0.0226
 9291W        W12889  12.917   6.442   1.991  0.0762  0.0381 -0.0684
 9292W        W12890   6.634   1.744   0.214 -0.4948  0.0179 -0.0616
 9293W        W12891   0.526  14.416   9.385 -0.2732  0.1430  0.2144
 9294W        W12892  15.042  11.033   4.448 -0.0214 -0.1762 -0.0025
 9295W        W12893  15.651   6.099  13.089 -0.1377  0.1311  0.1157
 9296W        W12894   8.405   5.194  13.002 -0.2788  0.0524 -0.1832
 9297W        W12895  13.760  12.150   6.716 -0.1525 -0.2951  0.0037
 9298W        W12896   0.409   9.772  15.781 -0.0470 -0.1639  0.0549
 9299W        W12897   4.118   3.397   5.988 -0.0941 -0.0851 -0.0021
 9300W        W12898   4.578   2.922   8.484 -0.3463  0.3053  0.3297
 9301W        W12899  10.493  12.905   4.322 -0.2201 -0.0509 -0.2391
 9302W        W12900  11.217   8.506   2.495 -0.1540  0.0069  0.3283
 9303W        W12901  13.166   7.185   5.123  0.1227 -0.2035  0.1944
 9304W        W12902  10.018   8.522   4.827 -0.0235  0.2939  0.1763
 9305W        W12903  14.295  15.282  10.909  0.0272  0.0371  0.1362
 9306W        W12904   4.599   2.406  12.482  0.1420  0.1487  0.0443
 9307W        W12905  14.219   5.052   8.085  0.1501  0.1269  0.0374
 9308W        W12906   0.374   0.662  15.886 -0.3794 -0.2460 -0.0696
 9309W        W12907   9.793   7.517   3.037 -0.0474  0.3206  0.1028
 9310W        W12908   6.260   2.003   6.172  0.0067  0.0101  0.0334
 9311W        W12909  11.940   2.746  11.374  0.0326 -0.4448  0.1704
 9312W        W12910   0.346   8.597   6.617  0.0981  0.0132 -0.1712
 9313W        W12911   0.532   7.231  11.850 -0.1248 -0.0798 -0.3147
 9314W        W12912  11.205  12.335   2.635  0.2893  0.0488 -0.0943
 9315W        W12913   1.348   4.352   3.547  0.1235  0.1076  0.3125
 9316W        W12914   2.564   7.516   6.494  0.1099 -0.1707 -0.2715
 9317W        W12915   9.972   9.483   7.932 -0.2103  0.2124  0.0011
 9318W        W12916  15.854   3.810  14.537 -0.2712 -0.0565 -0.2156
 9319W        W12917  14.587   2.565   5.725 -0.1653 -0.1726  0.0791
 9320W        W12918  15.273  15.854  10.968 -0.1709  0.2911 -0.0472
 9321W        W12919   6.222  15.666   5.041  0.3516  0.1825  0.2567
 9322W        W12920   2.942  12.712   1.406  0.0119 -0.0294  0.0413
 9323W        W12921   8.963   9.148   6.735  0.1525  0.2782  0.1252
 9324W        W12922  12.641   1.431   9.957 -0.1193 -0.1342 -0.3809
 9325W        W12923   0.950  14.559   5.170 -0.0775 -0.0484 -0.1009
 9326W        W12924  16.069  12.842   3.552 -0.1779 -0.1555  0.0459
 9327W        W12925   8.721   9.112  13.870 -0.1089 -0.1176 -0.0518
 9328W        W12926   3.969  15.792  15.924  0.0073 -0.0137 -0.0311
 9329W        W12927   7.204   8.347  13.458 -0.0715  0.1848  0.2463
 9330W        W12928  13.198   8.328   1.813  0.1413 -0.1653 -0.0485
 9331W        W12929   9.428  15.325  11.458 -0.1902  0.0392  0.0286
 9332W        W12930   9.363  11.230  14.450 -0.2607 -0.0080 -0.0436
 9333W        W12931  11.640  10.416   8.313 -0.2158 -0.2683  0.0430
 9334W        W12932   4.647   6.193  10.153 -0.0039 -0.1886  0.1516
 9335W        W12933  12.298   9.436  11.105 -0.1462 -0.0409  0.2519
 9336W        W12934  10.261  12.948   2.102 -0.3456 -0.0047 -0.3163
 9337W        W12935  16.206  13.960  14.572 -0.3946  0.0232  0.0063
 9338W        W12936   8.528   9.882   3.453  0.2947  0.2630  0.1701
 9339W        W12937   8.352  16.057   4.214 -0.3454  0.1835 -0.2031
 9340W        W12938   2.461  12.152   3.081  0.1972  0.0492  0.2080
 9341W        W12939   0.836   7.283   1.970 -0.2177 -0.0081 -0.0080
 9342W        W12940   1.565  14.587   0.744 -0.0163  0.0582  0.0868
 9343W        W12941   0.248  12.712  12.250 -0.1401  0.0938  0.0404
 9344W        W12942   0.961  12.616   1.378 -0.3291 -0.1308  0.0141
 9345W        W12943   2.593   4.510  13.799 -0.1044  0.0114  0.1799
 9346W        W12944   3.083   1.633   1.359  0.0337  0.1368  0.0092
 9347W        W12945  14.502   7.363   0.774 -0.2296  0.4189  0.0785
 9348W        W12946   0.797   1.311  12.345  0.1887  0.2805  0.2387
 9349W        W12947  11.791  10.875   5.598 -0.0571 -0.0740  0.0208
 9350W        W12948   4.163   3.302  13.106  0.3585  0.3666  0.1302
 9351W        W12949  11.348  13.518  16.124  0.1020  0.0046  0.0877
 9352W        W12950   5.950  15.016  15.222  0.3674  0.3733 -0.0741
 9353W        W12951  16.375  13.768  11.196 -0.2333  0.0435  0.1330
 9354W        W12952  16.210   5.114  13.992  0.0783  0.3046 -0.2377
 9355W        W12953   8.751  13.725  12.478  0.1450  0.0729  0.1654
 9356W        W12954  10.110  10.606  10.332  0.1932  0.1242  0.0418
 9357W        W12955  11.253   9.825  14.123 -0.0642  0.0187 -0.1462
 9358W        W12956   7.175   6.425  16.383  0.2883  0.0049  0.3718
 9359W        W12957  15.704  13.327   1.790  0.2578  0.0357 -0.1144
 9360W        W12958  13.664   6.704   5.857 -0.0534  0.1746  0.0336
 9361W        W12959   3.873   0.436   1.203 -0.2421  0.0009  0.1879
 9362W        W12960   2.709   8.855  11.704  0.3433  0.1717 -0.4252
 9363W        W12961  15.742  10.224   3.644 -0.1661  0.2590  0.2318
 9364W        W12962   3.514  12.540  13.643  0.1279  0.0077 -0.0279
 9365W        W12963  16.310   0.856   3.814 -0.0464  0.0911 -0.2874
 9366W        W12964   2.236  15.456   9.536  0.0249  0.0470 -0.0862
 9367W        W12965   2.477   2.267  10.558 -0.1827 -0.1138 -0.0536
 9368W        W12966   8.239   7.158  16.116  0.1039  0.1348  0.0256
 9369W        W12967  12.759   0.629  15.596 -0.1088 -0.0247 -0.2106
 9370W        W12968  12.811  13.834   7.607  0.0109  0.2121  0.0220
 9371W        W12969   6.184  15.194   6.656 -0.3096 -0.0491 -0.1040
 9372W        W12970   8.726   6.112   8.318 -0.2260  0.0662 -0.0482
 9373W        W12971  13.088  13.917   9.584 -0.1342  0.1289 -0.1398
 9374W        W12972   8.341   7.445   6.584 -0.0525 -0.0585  0.3316
 9375W        W12973  16.053   8.869   8.985  0.0545 -0.0368 -0.1085
 9376W        W12974   2.802   4.217   0.100  0.0296 -0.2734 -0.1478
 9377W        W12975   7.980  10.436   4.294 -0.4520 -0.0320 -0.0665
 9378W        W12976   5.725  14.608  15.055  0.0485  0.0435  0.3577
 9379W        W12977   1.871  10.248  12.565  0.0862  0.1147 -0.0638
 9380W        W12978  10.710   2.729  14.178 -0.4061 -0.2140  0.0580
 9381W        W12979   2.393   6.780   7.448 -0.1454 -0.0717 -0.2439
 9382W        W12980  13.461   4.271  13.174 -0.2070  0.2425 -0.5136
 9383W        W12981   9.736   0.466   5.203  0.3766  0.0558 -0.0726
 9384W        W12982  12.792  13.550  14.515  0.1030  0.0945 -0.2070
 9385W        W12983   7.231  15.200  15.962 -0.0351 -0.2567  0.0071
 9386W        W12984   4.367   1.433   1.238 -0.3195 -0.0084 -0.0104
 9387W        W12985  16.231   5.509   0.338  0.2702 -0.0769 -0.2789
 9388W        W12986   2.304   6.664   0.887 -0.0435  0.0731 -0.0382
 9389W        W12987  14.937   2.336  14.958 -0.1657 -0.2554  0.1080
 9390W        W12988  10.035   3.311   9.384  0.0001 -0.1465 -0.3869
 9391W        W12989  12.119  13.914  12.147  0.1458  0.2372 -0.0458
 9392W        W12990   7.476  10.906   1.753  0.0164 -0.0344 -0.0629
 9393W        W12991   9.749  15.019  15.590 -0.1317  0.0881 -0.0622
 9394W        W12992   8.027   1.135   5.619  0.2715  0.1504  0.1093
 9395W        W12993  11.608  13.096   5.792  0.1720  0.2017  0.0398
 9396W        W12994   1.058   8.242  10.538  0.1729 -0.0910 -0.0105
 9397W        W12995   2.043   4.652   7.459  0.2494  0.0303 -0.1586
 9398W        W12996  13.085   0.960   0.858 -0.2844  0.1474 -0.0459
 9399W        W12997  11.247   2.768   4.235  0.1666 -0.1233  0.2227
 9400W        W12998   9.997  12.515  13.846  0.0737 -0.0906  0.2015
 9401W        W12999   0.113  13.284  11.284 -0.1127  0.2964  0.2996
 9402W        W13000   1.027  13.031  11.137  0.2278  0.0753  0.1340
 9403W        W13001  11.472   5.060   4.094  0.0845  0.0336  0.0971
 9404W        W13002  13.225  16.119   0.759  0.0157  0.1453 -0.5287
 9405W        W13003  12.983   2.723   1.158  0.1701 -0.1086 -0.0827
 9406W        W13004   9.922   6.302  11.201 -0.3027  0.1191 -0.1935
 9407W        W13005  14.395   3.959   9.989 -0.1673  0.1599  0.0722
 9408W        W13006   0.966   9.574   3.846 -0.0937  0.2788  0.2552
 9409W        W13007   4.016   8.791   9.337  0.1656  0.1038  0.1909
 9410W        W13008   2.947   8.382   3.110 -0.1325  0.0216  0.2349
 9411W        W13009   2.694  13.421  12.557  0.0869  0.2841  0.0271
 9412W        W13010   0.455   4.227  11.830  0.0888  0.3175 -0.0923
 9413W        W13011   6.934   2.533   1.446 -0.2992  0.0415 -0.2006
 9414W        W13012   9.939   5.853  14.522 -0.0004 -0.0176  0.2680
 9415W        W13013   0.580   9.980   2.463 -0.0870 -0.1168  0.0949
 9416W        W13014  16.085  14.511  14.025 -0.1467  0.1677 -0.1372
 9417W        W13015   0.510   9.011   4.982 -0.2074  0.3043  0.2340
 9418W        W13016  13.383  15.096   3.558 -0.1972  0.0934  0.1272
 9419W        W13017  16.124   1.862   3.922  0.0521 -0.0979  0.1569
 9420W        W13018  14.251   1.294  13.825  0.3407 -0.2388 -0.1821
 9421W        W13019  11.928   4.781   4.024  0.0466  0.0649  0.1774
 9422W        W13020   9.239   5.594   3.317  0.2320 -0.0260  0.2497
 9423W        W13021   1.985   5.938  15.817  0.0241  0.0494  0.1731
 9424W        W13022  10.687  13.537  13.739  0.2815  0.3011 -0.0238
 9425W        W13023  13.022  14.739  13.075 -0.0453  0.1800  0.1964
 9426W        W13024   7.575  13.548  16.097 -0.2005 -0.3510 -0.3597
 9427W        W13025  11.606   8.837  15.675 -0.1806  0.0885  0.1359
 9428W        W13026   5.428  15.843  15.971 -0.2065 -0.1541 -0.0763
 9429W        W13027  15.412   6.828   8.107 -0.1215 -0.0078  0.1804
 9430W        W13028   7.380   5.754   1.436  0.1826  0.2156 -0.1049
 9431W        W13029   7.537   2.428   8.127  0.0997  0.0531  0.2500
 9432W        W13030  10.969   4.922  13.560 -0.0185 -0.1315  0.1443
 9433W        W13031   0.153   7.300   8.471 -0.1227 -0.3703  0.1158
 9434W        W13032   9.951   1.732  11.010  0.0894  0.1230 -0.0100
 9435W        W13033   3.163   2.570  12.279 -0.0627  0.0373 -0.1902
 9436W        W13034   4.703   5.420   2.322  0.0933  0.3491  0.3016
 9437W        W13035  13.184  10.142   2.926 -0.1348  0.1414  0.1679
 9438W        W13036   2.677   4.154   7.026 -0.0588  0.1181 -0.3314
 9439W        W13037   7.189   2.673   5.346 -0.0059  0.0636 -0.2806
 9440W        W13038  14.876   4.641   4.233 -0.3838 -0.4673  0.2635
 9441W        W13039  12.141  15.034   0.153 -0.1113 -0.1832  0.1626
 9442W        W13040   5.602   5.357   9.020  0.0138  0.0743 -0.2645
 9443W        W13041   9.013   3.252  16.198  0.0414  0.4188  0.2816
 9444W        W13042   6.819   9.562   1.554  0.0990  0.1016  0.2153
 9445W        W13043   0.523   7.379  13.824 -0.0771 -0.2170 -0.0217
 9446W        W13044   6.502  16.126   9.865  0.4814  0.0783 -0.0070
 9447W        W13045  10.746  12.314  12.467  0.2132  0.0764 -0.0973
 9448W        W13046  15.802  12.538   3.210 -0.3268  0.1018  0.1079
 9449W        W13047   9.619   8.135  14.754  0.1098  0.3262  0.1773
 9450W        W13048   4.161  10.785   5.031 -0.0162  0.1854  0.0190
 9451W        W13049  15.681  15.467  10.208 -0.1941 -0.1272  0.2168
 9452W        W13050   7.407   0.107  11.725 -0.3096 -0.6801 -0.1215
 9453W        W13051  10.013   4.685   3.385  0.0954  0.2081  0.0083
 9454W        W13052   4.594   7.406   7.593  0.1864  0.3188  0.0461
 9455W        W13053   3.039   3.725  10.148 -0.2430 -0.0112  0.2552
 9456W        W13054   3.302   6.150  10.008  0.1325  0.0006  0.1512
 9457W        W13055   1.182   7.420   4.300  0.1493 -0.2056 -0.1718
 9458W        W13056   8.834  11.838  13.492  0.1310 -0.0308 -0.0277
 9459W        W13057   4.758  11.635  12.196 -0.1791 -0.6254 -0.1595
 9460W        W13058  10.931  16.069  11.454  0.2191 -0.2592 -0.2160
 9461W        W13059   1.467  11.330   1.049 -0.2019 -0.1356 -0.1479
 9462W        W13060   6.240   7.903   0.143 -0.0638  0.1701 -0.5642
 9463W        W13061  13.918   5.380   6.067  0.1967 -0.2453 -0.2793
 9464W        W13062  13.206   3.083   6.036 -0.2311  0.0423  0.1194
 9465W        W13063   0.333   8.080  15.249  0.0762  0.0821  0.0343
 9466W        W13064   8.797   7.870  11.535 -0.0094 -0.2675 -0.3020
 9467W        W13065  13.799  12.938  16.023  0.0276  0.0307  0.0157
 9468W        W13066   4.582   1.556  11.957 -0.0137 -0.0138  0.1304
 9469W        W13067   6.168   1.043   3.553  0.0022 -0.2465 -0.1983
 9470W        W13068   7.513   6.489   8.813 -0.4450 -0.4338 -0.1701
 9471W        W13069  15.340   5.523  10.197  0.0762  0.0229  0.1341
 9472W        W13070  13.242   9.988   4.468 -0.0803 -0.0747  0.0231
 9473W        W13071  11.912   5.152   8.186 -0.0772  0.1478 -0.4410
 9474W        W13072   1.298   1.752   9.193  0.0402  0.2685 -0.2091
 9475W        W13073   8.223  15.871   9.713 -0.0042  0.0128  0.0452
 9476W        W13074   0.632   4.363   9.328  0.1905 -0.2284 -0.2011
 9477W        W13075  13.924  11.768   4.829  0.1256  0.1570 -0.0254
 9478W        W13076   9.066  14.143   0.856 -0.0356 -0.0271 -0.2791
 9479W        W13077  11.554  11.216  12.166  0.1555  0.1639 -0.0872
 9480W        W13078  10.438   5.501  11.016 -0.1307  0.1599 -0.0595
 9481W        W13079   0.153  14.448   7.824 -0.3475  0.1381 -0.1822
 9482W        W13080   6.617  13.867   5.884 -0.2062 -0.1277 -0.0131
 9483W        W13081  11.297  10.897   7.346  0.2379 -0.2814  0.0234
 9484W        W13082  14.637   9.022  15.029  0.1431  0.1689 -0.1470
 9485W        W13083  13.488   5.832   5.022 -0.0321  0.0787 -0.0523
 9486W        W13084   8.111   6.834   0.068  0.1493  0.0421 -0.0547
 9487W        W13085  13.879   3.672   7.291  0.0301  0.0281 -0.2509
 9488W        W13086   7.078  15.558   0.127 -0.1430  0.0354 -0.2562
 9489W        W13087   3.840   5.895  14.025 -0.4058  0.3739 -0.0686
 9490W        W13088   3.962   5.372  13.622 -0.4407  0.0465 -0.0771
 9491W        W13089  10.038   8.776   3.966  0.1869 -0.0448  0.0361
 9492W        W13090  10.417   7.365   4.237  0.2571 -0.3210 -0.0784
 9493W        W13091   5.856   4.680   8.412 -0.0338 -0.0062 -0.2999
 9494W        W13092  11.270   0.268   3.169  0.2252  0.0037 -0.0862
 9495W        W13093   7.766  11.644  15.176 -0.0023 -0.1572 -0.0042
 9496W        W13094   7.834   1.357   6.916  0.1091  0.1292 -0.1095
 9497W        W13095  11.026   1.738   0.707 -0.4715 -0.0621  0.0246
 9498W        W13096  15.935   8.194  13.580  0.3487 -0.0858  0.0159
 9499W        W13097   8.612   9.158   5.780  0.0178  0.1494 -0.0001
 9500W        W13098   5.096   7.804   4.610  0.1036 -0.1171 -0.0618
 9501W        W13099   2.286  11.291   5.993  0.2082  0.1292 -0.0444
 9502W        W13100  10.937   6.454   8.775 -0.0080  0.0706 -0.5190
 9503W        W13101  14.712  14.743   3.397 -0.0795 -0.2464 -0.1280
 9504W        W13102   7.912   0.136  12.136  0.1585  0.0553  0.2714
 9505W        W13103   4.609  11.423  14.965  0.0718  0.0949  0.0674
 9506W        W13104   8.568  15.026   1.130  0.0126  0.0522 -0.3408
 9507W        W13105  14.991  11.688  13.530 -0.2953 -0.0960 -0.0323
 9508W        W13106   6.353   3.988  14.489 -0.0518 -0.1926  0.0885
 9509W        W13107  12.719   0.171  11.625 -0.1478  0.1512 -0.2332
 9510W        W13108   5.952  15.440   8.711  0.1607  0.0624 -0.4453
 9511W        W13109   9.144  13.170  16.243 -0.1152 -0.1045 -0.2901
 9512W        W13110  12.084  13.712   1.816  0.2053 -0.0714  0.0455
 9513W        W13111   3.440   9.089  14.308  0.2186 -0.2151  0.2475
 9514W        W13112   2.746   1.053  12.902 -0.0526 -0.1988  0.0360
 9515W        W13113  14.756   8.606  10.270 -0.1230  0.1340  0.3509
 9516W        W13114  10.229  15.305   0.552  0.2129 -0.0980  0.3099
 9517W        W13115   5.736   5.924   5.858 -0.1561 -0.1208 -0.0027
 9518W        W13116   4.098   1.777   7.754  0.2096 -0.1356 -0.1337
 9519W        W13117   3.476  11.647  12.285  0.1456 -0.2613 -0.0194
 9520W        W13118   2.877   9.002  11.254 -0.2705  0.1066  0.0913
 9521W        W13119   9.730  10.117   7.179 -0.2397  0.0147 -0.1922
 9522W        W13120   8.882   7.452  15.032 -0.0300  0.0353  0.0517
 9523W        W13121  15.571  14.215   9.736 -0.0693  0.1130  0.0147
 9524W        W13122   5.076  14.014  15.803 -0.2058 -0.0359 -0.3240
 9525W        W13123   1.192   2.812  11.413  0.0312 -0.0635 -0.2656
 9526W        W13124  12.697   7.906   0.355  0.1091  0.1198 -0.2965
 9527W        W13125   3.355  14.442  11.545  0.0962 -0.3746  0.2341
 9528W        W13126   0.631  13.859   8.212  0.1808  0.2688 -0.0035
 9529W        W13127   8.918   1.183   0.690  0.1109  0.0784  0.0775
 9530W        W13128   7.058  15.034   6.253 -0.0885 -0.0636 -0.2007
 9531W        W13129   1.746   1.337  16.070 -0.0532  0.1785 -0.1997
 9532W        W13130   9.916   1.095  14.816  0.0432  0.0133  0.1180
 9533W        W13131  14.989   6.170   1.036  0.1118 -0.2251 -0.4254
 9534W        W13132   2.654  10.585   8.926  0.0927  0.1699  0.4195
 9535W        W13133   5.180   4.122   3.561  0.0743 -0.1203 -0.1187
 9536W        W13134   2.499   1.403  11.477  0.0110  0.1169  0.1061
 9537W        W13135  14.620   5.234   8.769  0.0421  0.0759  0.3432
 9538W        W13136   0.265   2.984   7.108 -0.2850 -0.1110 -0.0864
 9539W        W13137   3.109   6.201   1.102  0.0337 -0.0890  0.0754
 9540W        W13138   7.605   4.952   8.830 -0.1961 -0.0943 -0.2645
 9541W        W13139  13.952  10.392   3.888 -0.1017 -0.2765 -0.1319
 9542W        W13140   2.223  12.778  13.208 -0.1334 -0.2909  0.0791
 9543W        W13141   2.770  10.408   7.527 -0.4340 -0.1535 -0.1995
 9544W        W13142  13.739   2.615   9.252  0.0463 -0.0127 -0.1708
 9545W        W13143   8.736   6.946   0.620  0.0123  0.0048 -0.0969
 9546W        W13144   2.920  14.073  11.367  0.3958  0.1651  0.0412
 9547W        W13145  15.385  11.020   4.777  0.0851 -0.3852  0.1382
 9548W        W13146   7.174   5.670  11.588 -0.1520 -0.0466 -0.0210
 9549W        W13147   5.052  16.192   3.782  0.1320 -0.5406  0.0191
 9550W        W13148   2.223   2.485   5.263 -0.0593  0.0151  0.1600
 9551W        W13149   7.118   4.507   2.160  0.1986  0.0789 -0.0096
 9552W        W13150  11.601  13.130  14.038 -0.0497  0.0404 -0.2057
 9553W        W13151  15.794   5.098   7.995 -0.1896 -0.1043 -0.1906
 9554W        W13152   7.938   8.957   0.390  0.1295 -0.0351  0.2749
 9555W        W13153  10.189   1.367  14.314  0.0801 -0.0394 -0.0867
 9556W        W13154  10.737   7.469   8.322 -0.5829 -0.1162  0.1333
 9557W        W13155   8.171  12.138   9.222  0.3200 -0.1377 -0.1193
 9558W        W13156  11.340   5.501   5.993 -0.1184 -0.1210  0.0646
 9559W        W13157  13.509  12.070   0.898  0.3500  0.0861 -0.1076
 9560W        W13158  11.274  12.392  12.662  0.1852  0.0769  0.1977
 9561W        W13159   0.582   2.479   8.759 -0.1545  0.0246 -0.2489
 9562W        W13160   9.667   2.267   0.440 -0.1567  0.0457  0.1802
 9563W        W13161   5.615   4.602  12.582  0.1994 -0.0000  0.0502
 9564W        W13162  14.157  14.022   7.330  0.1949 -0.0340 -0.0438
 9565W        W13163   1.886  10.791  15.391  0.2373 -0.0079 -0.0077
 9566W        W13164   1.614  11.172   0.575 -0.1920  0.0463  0.1760
 9567W        W13165   3.383  16.233   1.250 -0.0217 -0.1198 -0.0228
 9568W        W13166   7.161   0.453  15.270 -0.0238 -0.0989 -0.0550
 9569W        W13167   2.599  11.753   7.468 -0.0994 -0.1706  0.1988
 9570W        W13168   8.591  16.136   6.591 -0.1858  0.0783 -0.1596
 9571W        W13169   2.526  15.525   2.417  0.1302  0.2424  0.2307
 9572W        W13170  13.386  13.493   6.887 -0.1693  0.0418 -0.0381
 9573W        W13171   7.729  13.222   3.546 -0.0828  0.1875  0.0653
 9574W        W13172   6.379  13.779  13.324  0.0808  0.3720 -0.2284
 9575W        W13173  15.788   3.101   0.782  0.1666  0.0340  0.2211
 9576W        W13174   1.823  13.656  12.214 -0.0761  0.0167 -0.0935
 9577W        W13175   7.912   2.176  13.243  0.1394 -0.1911  0.1209
 9578W        W13176   3.240   6.302   6.367 -0.0549 -0.3874  0.0096
 9579W        W13177  13.711   1.587   1.877  0.0797  0.0028  0.0695
 9580W        W13178  12.866  13.709  11.732  0.0520 -0.0025  0.1719
 9581W        W13179   3.879   0.613   6.091 -0.1303  0.0800 -0.1654
 9582W        W13180   5.561  13.918   6.233 -0.0433 -0.0249 -0.1122
 9583W        W13181  10.685  12.932   0.727  0.1438 -0.3822 -0.0064
 9584W        W13182   1.148   7.819   4.744  0.3970  0.3224 -0.1851
 9585W        W13183  12.912   1.315   7.662 -0.0590  0.3166 -0.2604
 9586W        W13184   8.447   0.170  13.365 -0.1803  0.1011  0.0150
 9587W        W13185  13.721  13.548  14.313 -0.0170  0.1197 -0.0584
 9588W        W13186   6.751   0.960   1.026  0.3084 -0.1331  0.0291
 9589W        W13187   4.174   7.721   7.726 -0.1472 -0.0291  0.0297
 9590W        W13188   8.861   0.591  13.682  0.1162 -0.0497 -0.0371
 9591W        W13189   4.512  13.617   2.097 -0.2821  0.0755 -0.4696
 9592W        W13190  13.694   1.315  12.666  0.0834 -0.2352 -0.0509
 9593W        W13191   2.666  13.456   8.295 -0.2580 -0.1058 -0.1468
 9594W        W13192  15.688  13.179  10.597 -0.1069  0.1503  0.2404
 9595W        W13193   2.287  15.869  10.302 -0.2360 -0.2378 -0.2812
 9596W        W13194  11.102  13.671   1.305 -0.1849 -0.3787  0.0838
 9597W        W13195  15.050   2.990  16.099 -0.1425  0.0371 -0.1927
 9598W        W13196   9.763   2.769   7.434  0.1831 -0.0200  0.1345
 9599W        W13197   3.941   1.233   3.126  0.0829  0.2969 -0.1451
 9600W        W13198   5.291  10.869  15.093  0.2467 -0.1727 -0.0619
 9601W        W13199   0.482   7.033  13.300 -0.0075 -0.1443 -0.0294
 9602W        W13200   7.414  15.833   2.806  0.1159 -0.1685 -0.0323
 9603W        W13201  11.828  11.741  14.735  0.0723 -0.0071 -0.0544
 9604W        W13202   7.248   6.906   3.820  0.0977 -0.0588 -0.0800
 9605W        W13203   5.179   9.710  11.678  0.1575  0.2428 -0.0558
 9606W        W13204   1.294   9.222  11.120 -0.0665 -0.1653  0.1735
 9607W        W13205   7.972   9.486   2.057 -0.0792  0.0240  0.1623
 9608W        W13206   1.056   0.722   9.406  0.2821 -0.1503  0.1257
 9609W        W13207  15.026   2.651   6.136 -0.1745 -0.2696  0.1614
 9610W        W13208  11.480  16.350  14.105  0.0763  0.0150  0.1138
 9611W        W13209   8.143   9.965   1.974  0.1685  0.0620 -0.0656
 9612W        W13210   6.982   6.014   3.322 -0.1283 -0.0189  0.1262
 9613W        W13211   3.739  14.232   5.052 -0.1056  0.0878  0.2306
 9614W        W13212   3.797  10.114  10.335 -0.0996 -0.1348  0.1032
 9615W        W13213  11.496  15.031   6.603 -0.0532  0.0753 -0.0632
 9616W        W13214   1.854   4.916   6.058 -0.2460 -0.3063  0.0983
 9617W        W13215  11.466   0.308   9.106  0.0902 -0.0232 -0.1124
 9618W        W13216   5.092   2.030  12.406  0.0454 -0.0331  0.3093
 9619W        W13217   3.152  15.190  10.096 -0.0650  0.1102 -0.1951
 9620W        W13218   0.989   5.267  10.216  0.3230 -0.1935 -0.3290
 9621W        W13219  10.719  15.561  11.272 -0.2490  0.0286 -0.2352
 9622W        W13220   8.661  12.885  12.280  0.0696 -0.0542  0.1081
 9623W        W13221   4.087  12.997  11.002 -0.1553  0.1672 -0.0867
 9624W        W13222  11.342  16.107   5.930  0.1034 -0.0025 -0.0758
 9625W        W13223  14.152   9.581  14.258 -0.1616  0.2443 -0.2441
 9626W        W13224  12.789   6.053   1.399 -0.2035 -0.1556 -0.0056
 9627W        W13225  12.032   5.667   9.857  0.3202 -0.2361 -0.1673
 9628W        W13226  10.277  16.310   8.665 -0.1351  0.1417  0.1102
 9629W        W13227   9.474   2.698  12.176  0.0061  0.0115 -0.0487
 9630W        W13228   2.334  15.024   7.839 -0.2947 -0.3330 -0.2933
 9631W        W13229   0.817   9.807  11.723 -0.3671 -0.0358  0.0842
 9632W        W13230   8.945   2.853  11.905 -0.3052 -0.3566 -0.3059
 9633W        W13231   6.581  10.517   9.465 -0.0122  0.0823  0.1985
 9634W        W13232   9.164  10.475  11.937  0.1322 -0.1691 -0.0885
 9635W        W13233   7.280  14.031   2.238  0.0162  0.1364  0.0479
 9636W        W13234   2.161  10.423   2.518  0.3678  0.1919 -0.1144
 9637W        W13235   5.891  12.483  14.467  0.1514  0.4353  0.1747
 9638W        W13236  13.869  11.315   9.875  0.0025  0.1171 -0.1757
 9639W        W13237   7.065   8.729   3.899  0.2352 -0.1400 -0.1786
 9640W        W13238  12.204  15.029   4.942  0.0417  0.3828  0.1538
 9641W        W13239   1.865   4.607   3.020 -0.1828 -0.4998  0.1663
 9642W        W13240   8.353   2.201  11.353 -0.6045  0.0470 -0.1909
 9643W        W13241   9.478   3.332  13.680 -0.0020  0.0443 -0.0812
 9644W        W13242   9.613  11.045   5.608  0.1794 -0.1304  0.4694
 9645W        W13243   0.278   0.437  15.346 -0.3008  0.2071 -0.0087
 9646W        W13244  10.378  16.072   5.301 -0.0385  0.1010 -0.0716
 9647W        W13245  14.274   0.453   3.072  0.0280 -0.0435  0.0170
 9648W        W13246  16.250   2.202   7.206 -0.1100 -0.1979 -0.1149
 9649W        W13247  12.184  13.028  11.772 -0.2188  0.1549  0.2375
 9650W        W13248   0.036  10.569  14.141 -0.1753  0.0628 -0.1746
 9651W        W13249  14.733  13.974  14.267  0.0776 -0.0662 -0.0057
 9652W        W13250  10.092   3.543  14.840 -0.1310 -0.0262  0.2554
 9653W        W13251  11.558   2.596  14.659  0.2055  0.0934  0.1029
 9654W        W13252   2.783  13.880  16.158 -0.1993 -0.0612  0.2227
 9655W        W13253   2.919  14.718   1.865  0.1653  0.1773 -0.1239
 9656W        W13254   1.354  10.398   8.791 -0.0348 -0.0038 -0.0362
 9657W        W13255  10.150  10.039  14.353 -0.2992 -0.0125  0.2637
 9658W        W13256   3.874   5.276   9.851 -0.1146  0.1833  0.1428
 9659W        W13257   7.643   7.312  14.565  0.1425 -0.1299  0.3414
 9660W        W13258   4.056   8.207  12.151 -0.0768  0.1355 -0.4222
 9661W        W13259  14.858   5.395   0.554  0.1722  0.1208 -0.0134
 9662W        W13260  11.006   7.831   2.036 -0.2460 -0.2720 -0.0308
 9663W        W13261  14.245   4.070  14.843  0.1220 -0.2041 -0.2838
 9664W        W13262   2.857   9.575  11.170  0.0242  0.3134 -0.0484
 9665W        W13263  12.440   4.462   9.746  0.1648 -0.1932 -0.0783
 9666W        W13264   1.599  12.736   5.877  0.0066  0.0337 -0.0597
 9667W        W13265   5.961  12.147   8.525 -0.0617  0.1949 -0.0814
 9668W        W13266   0.123  11.804   4.959  0.0834 -0.1029  0.1831
 9669W        W13267  13.391  11.871   2.602  0.0020 -0.4133  0.0069
 9670W        W13268   5.620  14.892  13.537 -0.1191 -0.2560  0.0423
 9671W        W13269  14.428   4.368   4.307 -0.1318 -0.0964 -0.2974
 9672W        W13270   1.992   9.539   5.857  0.2939  0.1550 -0.2148
 9673W        W13271   9.954  14.784  16.060 -0.0697 -0.1508  0.0302
 9674W        W13272  16.105   6.511  15.739  0.2260  0.0427  0.2787
 9675W        W13273  15.269   3.359  10.192 -0.0912 -0.1912 -0.2227
 9676W        W13274   2.057  15.422  13.481 -0.3068  0.0680  0.0155
 9677W        W13275  13.182  10.020  12.295 -0.0195  0.1734  0.1172
 9678W        W13276   7.542  15.423  16.293  0.0322 -0.0568  0.0431
 9679W        W13277  15.380   0.483   1.641 -0.2636  0.0881  0.3570
 9680W        W13278  15.687   5.889   7.432  0.0056  0.0734  0.0129
 9681W        W13279  14.561  16.110  15.407  0.0304  0.0904  0.2971
 9682W        W13280   4.042  14.706  12.532  0.2644 -0.0944  0.1393
 9683W        W13281  14.874  16.137  12.220 -0.3071  0.3811  0.2046
 9684W        W13282  14.165   8.419   6.804  0.1683  0.2419 -0.0660
 9685W        W13283   5.881   0.569   1.678  0.0261  0.2702  0.0160
 9686W        W13284   9.317   8.341  10.249 -0.3762  0.0852  0.2705
 9687W        W13285  15.202  13.853   8.270  0.0409  0.3506 -0.1428
 9688W        W13286   6.097   8.177   5.708 -0.3043  0.1369  0.2243
 9689W        W13287   4.203  16.249  15.800  0.0985 -0.0117  0.0367
 9690W        W13288   4.533  11.808   3.417  0.3279 -0.0997  0.2693
 9691W        W13289  13.726  12.742  12.094 -0.0134  0.1211 -0.1345
 9692W        W13290  12.067   1.956  14.255  0.2864  0.1398 -0.1958
 9693W        W13291  10.587  12.555  11.039  0.3719  0.0248 -0.3318
 9694W        W13292  13.399   0.112   5.089  0.2715 -0.0710  0.1998
 9695W        W13293   1.324  15.062   1.742 -0.1928  0.0749  0.0990
 9696W        W13294   0.902   9.482  10.867  0.1532  0.1395 -0.0521
 9697W        W13295   5.336   7.312   4.351 -0.4202 -0.2388 -0.3089
 9698W        W13296   6.671  10.467   8.129 -0.3318  0.1655  0.0671
 9699W        W13297   3.275   5.288  10.863  0.2165 -0.0085  0.1176
 9700W        W13298  11.209   2.989  12.139  0.0387  0.1528  0.2547
 9701W        W13299  15.177  15.672   6.247  0.0997 -0.1884  0.2927
 9702W        W13300  15.061   5.837   6.760 -0.0646 -0.1528 -0.1233
 9703W        W13301   4.051   6.534  10.181 -0.1443  0.0597  0.2637
 9704W        W13302  14.322   7.522   1.580  0.0607 -0.1715 -0.1324
 9705W        W13303  15.258   8.447   3.879  0.3504 -0.0440  0.0883
 9706W        W13304   8.319   7.563  13.343  0.0432 -0.1662 -0.0697
 9707W        W13305   0.028   4.642   6.366 -0.3891  0.1787 -0.0794
 9708W        W13306   1.680   6.326  15.695 -0.0343  0.2467  0.0284
 9709W        W13307   7.603   4.636  13.235  0.1235  0.0141 -0.0944
 9710W        W13308  14.404  13.392   3.558 -0.0698 -0.0219 -0.2555
 9711W        W13309   1.569   9.727  16.240 -0.4901 -0.4910  0.2601
 9712W        W13310   3.670  13.589   1.197 -0.0341  0.2494 -0.1760
 9713W        W13311  10.712  12.316  14.470  0.1026 -0.1144  0.1172
 9714W        W13312  15.347   5.221   1.834 -0.2341 -0.5505 -0.2266
 9715W        W13313  11.033  12.922   4.257 -0.1330 -0.0903 -0.1672
 9716W        W13314   8.669   2.864   5.185  0.1624 -0.0165 -0.1278
 9717W        W13315  15.429   5.169   8.315  0.1280 -0.5016  0.2683
 9718W        W13316   2.249   7.539  13.211 -0.1846 -0.3025 -0.0002
 9719W        W13317   9.606   8.744   1.357 -0.1380  0.0753  0.1187
 9720W        W13318   2.711   2.260  14.985  0.1282 -0.2669  0.1595
 9721W        W13319  11.565   9.925  13.737  0.1371  0.0640  0.1180
 9722W        W13320  15.581  13.011   3.378  0.2225 -0.0782  0.1375
 9723W        W13321   0.379   2.984  10.501  0.0728  0.1271 -0.0274
 9724W        W13322   4.920   3.641  12.577  0.1312 -0.0466 -0.2355
 9725W        W13323   0.679   9.437  11.991  0.0039  0.2632  0.1451
 9726W        W13324  10.185  11.621  12.297 -0.0416 -0.1423  0.1185
 9727W        W13325   4.205  14.262  14.698 -0.1048 -0.0609 -0.2333
 9728W        W13326   7.424   7.866  11.242 -0.3271  0.1630 -0.1399
 9729W        W13327   6.661   6.538   2.131 -0.0528 -0.2462 -0.1905
 9730W        W13328   9.286   2.889   5.908  0.2471  0.1993  0.2388
 9731W        W13329   1.601   9.317  10.543  0.1152  0.3076  0.0301
 9732W        W13330  15.399   7.402   8.835  0.4113  0.0290 -0.2818
 9733W        W13331   9.402  12.175   7.298  0.3335  0.1187 -0.0649
 9734W        W13332   1.476   3.563   8.553  0.2859 -0.0907  0.1193
 9735W        W13333  10.362   9.402   6.129  0.2790  0.0392 -0.0801
 9736W        W13334  12.191  12.208  10.128 -0.3362  0.3103  0.1073
 9737W        W13335   1.998   7.825   5.737  0.2566  0.0827  0.1223
 9738W        W13336  10.326   3.252   7.174 -0.0740 -0.0081  0.1658
 9739W        W13337   7.821  12.206   0.811  0.2073 -0.1411 -0.0086
 9740W        W13338   5.018  14.101   5.768 -0.0306 -0.0688  0.0902
 9741W        W13339   4.384   6.482   5.645  0.0293  0.0558  0.0076
 9742W        W13340   1.986   3.338  16.372  0.1501 -0.1119 -0.1104
 9743W        W13341  15.847   1.351   2.006 -0.0082 -0.0939 -0.1852
 9744W        W13342  16.329  10.559   6.515 -0.1244  0.0913  0.0475
 9745W        W13343   6.540  12.331   1.773 -0.0854  0.1593  0.0981
 9746W        W13344  14.877   9.128   7.289  0.2690  0.0077 -0.1226
 9747W        W13345  15.908  11.372  13.393  0.1246  0.0810  0.2139
 9748W        W13346   7.753   0.123  11.381  0.2035  0.1343  0.0499
 9749W        W13347  12.711   6.950  10.416  0.0649  0.0454 -0.2261
 9750W        W13348   7.251   8.054  14.301  0.0600  0.0651  0.0502
 9751W        W13349   2.390   4.479  12.988  0.0572 -0.0725 -0.0583
 9752W        W13350   6.841   4.170  14.725 -0.1698  0.1053 -0.0284
 9753W        W13351   3.519   6.786   1.752  0.2930  0.0124 -0.1567
 9754W        W13352   8.879   4.772   9.669  0.1539  0.2454 -0.1224
 9755W        W13353  14.059   4.082   6.230 -0.0280  0.2027  0.0425
 9756W        W13354  13.057   7.710  13.100 -0.1669  0.2479 -0.1360
 9757W        W13355  11.049   5.773   9.896 -0.2301  0.2779 -0.1538
 9758W        W13356  10.539  13.365   9.586 -0.1148 -0.2040 -0.0525
 9759W        W13357  10.142  13.391   6.598  0.0133  0.0659  0.2166
 9760W        W13358  14.873  10.061   0.282  0.1276 -0.2470  0.0206
 9761W        W13359  14.079   9.080  12.116  0.3173  0.0056  0.0291
 9762W        W13360   8.462   7.907   1.616  0.1163 -0.1308 -0.3153
 9763W        W13361   7.488   8.582  14.338  0.0761  0.0175 -0.0517
 9764W        W13362   3.942   5.857   7.819 -0.0391 -0.2427 -0.0583
 9765W        W13363   7.008   3.546  13.811  0.1653 -0.3217 -0.1977
 9766W        W13364   0.210   0.884  15.095  0.0832  0.0369  0.0880
 9767W        W13365  13.560   3.494   1.090  0.0580  0.1453 -0.1160
 9768W        W13366  15.143  13.633  10.942  0.0246 -0.0966 -0.5338
 9769W        W13367   1.555  11.131  11.322  0.0778  0.0642 -0.1725
 9770W        W13368   3.908   9.349   9.917  0.0954 -0.0298  0.2555
 9771W        W13369   9.215  11.836   1.493  0.0665 -0.2139 -0.0688
 9772W        W13370  16.120  15.602  11.978 -0.2398 -0.0784  0.2638
 9773W        W13371  13.466   6.555   0.583 -0.0463 -0.0039 -0.0407
 9774W        W13372   6.579  10.950   6.754  0.1856 -0.1793  0.1185
 9775W        W13373  13.611   5.407  12.797 -0.3119  0.0466 -0.0304
 9776W        W13374  15.823   2.434  10.178 -0.1001 -0.1125 -0.0697
 9777W        W13375   0.011   7.439   0.321 -0.1454 -0.2591  0.0952
 9778W        W13376  15.973  15.547   4.204  0.0870 -0.1838  0.1244
 9779W        W13377   0.335  15.776  10.553  0.3863  0.0540  0.1630
 9780W        W13378   0.799  13.371  12.230  0.1833  0.0725  0.0100
 9781W        W13379  15.057   3.146   2.921  0.2059  0.1365  0.1079
 9782W        W13380   0.077   6.610   8.508  0.1648 -0.2340  0.2298
 9783W        W13381  11.987  14.630   1.409 -0.0167  0.3049  0.1883
 9784W        W13382   2.425   6.415   4.538  0.2608 -0.1093 -0.2366
 9785W        W13383   0.086   3.322   0.403  0.0006 -0.1737  0.2740
 9786W        W13384  12.166  14.890   9.788  0.1578 -0.0439  0.0118
 9787W        W13385  11.450   6.688  14.374  0.2443 -0.1533  0.2696
 9788W        W13386   5.848   3.680   2.745  0.0144 -0.0404  0.0690
 9789W        W13387  10.229   8.968  15.485  0.0874 -0.1980 -0.0166
 9790W        W13388   9.322  11.829   3.828  0.1054  0.2695  0.0299
 9791W        W13389  15.496   8.144  14.572  0.1670 -0.1389  0.2875
 9792W        W13390   8.725  13.728   4.159 -0.1237  0.4920 -0.1739
 9793W        W13391   3.199   6.003   4.300  0.3540  0.1592  0.0912
 9794W        W13392  14.108   6.054  13.292 -0.1513 -0.0940  0.2118
 9795W        W13393   8.107  15.466  12.264 -0.2889 -0.3391 -0.3158
 9796W        W13394   5.684  12.155  11.165  0.0608 -0.0141  0.2150
 9797W        W13395   6.715   8.700  12.011  0.4303 -0.0858  0.1635
 9798W        W13396   0.698  14.932  12.152 -0.1862  0.0661 -0.1642
 9799W        W13397  10.418   1.160   8.648 -0.0259 -0.2484  0.1701
 9800W        W13398  12.730   7.737   3.223  0.0717  0.0895 -0.1716
 9801W        W13399   7.246   7.910   5.687  0.1083  0.1876  0.0032
 9802W        W13400   9.480   2.923   1.567  0.0464 -0.1834  0.0234
 9803W        W13401   7.632  14.453   2.219 -0.0888  0.0183 -0.1046
 9804W        W13402  10.779   2.798   7.101  0.2325 -0.1072 -0.0311
 9805W        W13403   5.574   8.144  15.746 -0.0748  0.0442  0.1518
 9806W        W13404  12.956   5.280   0.551 -0.1233 -0.3371  0.3185
 9807W        W13405  14.069  15.938  10.467  0.2866  0.2173 -0.0946
 9808W        W13406   7.976   7.911  11.316 -0.2780  0.0206 -0.0163
 9809W        W13407  11.717   6.864   7.679 -0.2858  0.0131 -0.0186
 9810W        W13408   4.449  11.266   9.683 -0.2566 -0.1849  0.1465
 9811W        W13409  16.292   3.672   6.057 -0.3474 -0.3658  0.3308
 9812W        W13410   0.829  13.675   1.276  0.2003  0.0301 -0.3672
 9813W        W13411  12.082   5.869   7.032  0.0695 -0.0137  0.0242
 9814W        W13412   4.269  11.306  16.234 -0.2133  0.1518  0.0306
 9815W        W13413  10.008   7.204  13.720 -0.0122  0.0306  0.2516
 9816W        W13414   1.597   8.092   3.891 -0.0251 -0.1837  0.1937
 9817W        W13415  16.246  10.546   2.694  0.0045  0.0702  0.2395
 9818W        W13416   0.068  14.005  15.551 -0.0881  0.1050  0.0581
 9819W        W13417   2.120   3.138   2.328  0.0772 -0.3353 -0.0149
 9820W        W13418   5.013  15.027   7.199 -0.0890  0.0667 -0.0744
 9821W        W13419  12.551   8.935  15.958  0.1412  0.2004 -0.3596
 9822W        W13420   6.971   1.344   8.063 -0.1110 -0.0634  0.1093
 9823W        W13421   3.852   6.398   4.612 -0.0082 -0.1134 -0.1491
 9824W        W13422  12.590   4.992   5.961 -0.0639 -0.1354  0.0466
 9825W        W13423   7.914   5.704   3.372  0.0579  0.1375 -0.0976
 9826W        W13424  14.601   7.325  12.134  0.3088  0.0943 -0.1618
 9827W        W13425   3.875  10.345   5.068  0.3293  0.0061 -0.0831
 9828W        W13426   2.896  15.295   7.156  0.0652 -0.0724 -0.1419
 9829W        W13427  12.412   2.670  10.455  0.3301  0.0016  0.1183
 9830W        W13428   4.366  13.442   7.150 -0.1055  0.1905 -0.0525
 9831W        W13429   1.904   5.075  10.188  0.0540  0.1911 -0.1953
 9832W        W13430  14.120   7.408   2.971  0.4962 -0.1792  0.0828
 9833W        W13431   8.434   7.010  10.388 -0.0872 -0.1426 -0.0581
 9834W        W13432   4.344   3.647  10.145 -0.0522 -0.0046 -0.0745
 9835W        W13433   6.713  15.198   7.722 -0.1822  0.0995 -0.3691
 9836W        W13434  10.041  10.655  15.067  0.5184 -0.0849  0.2214
 9837W        W13435  16.373   9.643   0.964 -0.1902  0.0619 -0.0599
 9838W        W13436   9.537   1.951  10.925  0.0762 -0.1468  0.1302
 9839W        W13437  14.635  13.276  15.837 -0.1589 -0.0578 -0.0624
 9840W        W13438  15.202   0.367  12.083 -0.2774  0.4653  0.4613
 9841W        W13439  12.598  11.418   9.823 -0.1389 -0.2108  0.2284
 9842W        W13440  11.291  12.227   4.694 -0.1797  0.0021 -0.3803
 9843W        W13441  14.138  11.611  12.907 -0.0601 -0.0641  0.0182
 9844W        W13442   6.010   8.549  15.361  0.1115 -0.3578  0.0649
 9845W        W13443   8.800   6.481   9.547 -0.0785  0.3034 -0.1046
 9846W        W13444   3.258   8.008   6.551  0.0722  0.0317  0.2265
 9847W        W13445   5.440  14.544   6.649 -0.1790  0.0945  0.2364
 9848W        W13446   9.178  10.160   3.409 -0.3147  0.0350  0.0235
 9849W        W13447  14.835   7.588   4.043  0.2781 -0.0735  0.0267
 9850W        W13448  15.426   4.548  10.658  0.1012  0.2016  0.0801
 9851W        W13449   3.576  15.514  12.433 -0.1116 -0.0711 -0.2274
 9852W        W13450  16.186  14.018   4.540  0.0283 -0.2657  0.0938
 9853W        W13451   8.781  10.594   1.652  0.2165 -0.3580  0.0555
 9854W        W13452   7.550  10.032   1.347  0.3006 -0.0971  0.2270
 9855W        W13453   0.849   1.486  15.807  0.2071  0.0784 -0.1456
 9856W        W13454   0.435  12.476  13.734  0.1352  0.0141  0.1794
 9857W        W13455   7.478   3.506   4.083  0.4549  0.0327 -0.3997
 9858W        W13456  13.813  11.651   1.171  0.0496 -0.0149 -0.0674
 9859W        W13457   6.404   8.969  12.341  0.2240  0.1400  0.0699
 9860W        W13458   6.387  12.775   8.666 -0.1675 -0.2423  0.3156
 9861W        W13459   9.501  16.126  10.890  0.3502 -0.2242  0.1262
 9862W        W13460   5.624   4.747  10.906  0.0707 -0.0279  0.0866
 9863W        W13461  11.472  15.695   0.801  0.3223 -0.3565 -0.1821
 9864W        W13462  15.482   9.372   7.954 -0.1135  0.1861 -0.2005
 9865W        W13463  14.313   7.615  12.403  0.1404  0.0159  0.0451
 9866W        W13464  13.434   2.993   3.869 -0.0977  0.1815 -0.0552
 9867W        W13465   0.129   6.974   0.535 -0.0385  0.2978  0.0670
 9868W        W13466   6.553  16.299  10.504  0.5465 -0.0860 -0.0855
 9869W        W13467  15.330   3.054   5.968 -0.0535  0.0868 -0.2155
 9870W        W13468   6.715   1.984   8.219  0.1222  0.1142 -0.0428
 9871W        W13469   1.765  15.677  12.395 -0.0883 -0.1537 -0.1685
 9872W        W13470   4.191   0.254   5.885  0.2152  0.1205 -0.0479
 9873W        W13471   8.138   7.155   1.237 -0.1464  0.1210 -0.1651
 9874W        W13472  12.681   0.059   0.017  0.1727 -0.0681  0.2182
 9875W        W13473   9.449  10.281   3.775  0.0695 -0.1283  0.1864
 9876W        W13474   4.097   3.142   6.446 -0.0574 -0.1595  0.2141
 9877W        W13475   3.737   4.433  15.290 -0.1603  0.1051  0.1471
 9878W        W13476  13.577   2.284   0.007  0.2723  0.3289  0.1166
 9879W        W13477   6.802  11.431   9.487  0.1233  0.2657  0.1002
 9880W        W13478  15.803  14.957   8.394 -0.1708 -0.2251  0.4178
 9881W        W13479   0.727   0.841  12.189  0.2115 -0.1252 -0.0718
 9882W        W13480   9.363  10.846   2.155 -0.1077 -0.2441  0.1845
 9883W        W13481  11.697   5.173  12.544  0.1239 -0.2171  0.1304
 9884W        W13482   8.405   2.410   9.715 -0.1150 -0.2996  0.1152
 9885W        W13483   7.849   1.396   9.921  0.1206  0.1357  0.3117
 9886W        W13484  13.039   1.384   3.815 -0.2488 -0.0697 -0.0594
 9887W        W13485  13.524   1.864   3.822 -0.1263 -0.0503  0.0475
 9888W        W13486  15.142   1.575   7.741  0.2528  0.2620 -0.0643
 9889W        W13487   5.238   5.603   5.070  0.1014 -0.1159  0.2852
 9890W        W13488   5.026   1.534   2.708  0.2069  0.0689  0.1822
 9891W        W13489   6.126   1.649  11.142  0.2057  0.1525 -0.4271
 9892W        W13490   6.418   0.606   2.354  0.1491  0.2353  0.1052
 9893W        W13491  15.199   0.368  11.471 -0.0037 -0.1242  0.2312
 9894W        W13492   2.476   8.138  10.724  0.1297  0.0066 -0.1455
 9895W        W13493   0.344   1.909  12.199 -0.3401 -0.0897  0.0845
 9896W        W13494   4.064   3.787   8.620 -0.0473  0.0483 -0.0626
 9897W        W13495   7.475  11.916  10.151  0.0763  0.2637 -0.1776
 9898W        W13496   3.211   5.950   5.335  0.0041 -0.0203  0.0575
 9899W        W13497   0.494   8.638   5.849 -0.1397  0.0171 -0.2463
 9900W        W13498  12.369  15.109   2.023  0.0807  0.0057 -0.0767
 9901W        W13499   2.578  11.875  11.385  0.1243 -0.0244  0.2600
 9902W        W13500  10.090   2.242  12.769  0.0409 -0.0272 -0.1212
 9903W        W13501   7.762  14.031   4.960 -0.1844 -0.1873  0.2138
 9904W        W13502   3.839   8.554  13.732  0.1135 -0.1970  0.0873
 9905W        W13503   9.581   3.460  10.189  0.1325 -0.0956 -0.1739
 9906W        W13504  14.400  12.161  13.398 -0.0760 -0.1496  0.0085
 9907W        W13505   5.599   4.850   2.323  0.1932  0.0094 -0.1050
 9908W        W13506  12.086   2.118   5.227  0.0366  0.0196  0.1440
 9909W        W13507   3.749  11.559   8.772  0.5187  0.1126  0.1859
 9910W        W13508   1.010  10.145   7.550  0.0948  0.1214 -0.0335
 9911W        W13509   0.194  13.029   3.602  0.0104 -0.0471 -0.2093
 9912W        W13510   8.041  14.318  13.328 -0.1233  0.2070 -0.0779
 9913W        W13511   7.676   7.404   7.331  0.0011 -0.0631  0.2027
 9914W        W13512  13.404   1.155   1.773 -0.0704  0.0333  0.0929
 9915W        W13513   3.455  13.340  11.882  0.1419  0.2538 -0.0435
 9916W        W13514  14.395  12.859   5.828 -0.0315  0.0594 -0.1107
 9917W        W13515  10.087   6.385   5.019 -0.0249  0.1039  0.1326
 9918W        W13516  13.156   4.574  11.096 -0.0370  0.0358  0.0478
 9919W        W13517   5.655   3.616  15.963 -0.1075 -0.0647  0.0318
 9920W        W13518   6.709  15.546   4.800  0.1678 -0.2308  0.1527
 9921W        W13519  10.309   2.712   7.212  0.1357 -0.0577  0.1148
 9922W        W13520  10.906   7.280   4.281  0.2855  0.2083 -0.0236
 9923W        W13521   4.078   2.697  14.869  0.1628  0.1570  0.0904
 9924W        W13522  10.392   3.938  16.337 -0.3200  0.1249 -0.1719
 9925W        W13523   2.230   6.465   5.905 -0.2537 -0.0538 -0.1330
 9926W        W13524  16.014   7.471   6.938  0.3274 -0.2472 -0.1868
 9927W        W13525   7.463   6.093  13.471  0.0071  0.2591  0.0300
 9928W        W13526   6.965  15.240   8.225  0.1996 -0.1918 -0.1479
 9929W        W13527  12.073  11.738  13.402  0.0876  0.3649 -0.0340
 9930W        W13528   8.956   0.721   0.580  0.3174  0.1546 -0.0798
 9931W        W13529   2.359  13.563  12.167  0.0295  0.0081  0.1177
 9932W        W13530  11.524   7.966   3.929 -0.1991 -0.3073  0.1877
 9933W        W13531  15.625   4.855   9.411 -0.1104 -0.0226  0.1284
 9934W        W13532  15.203   8.427   6.572 -0.2243  0.0823  0.1623
 9935W        W13533  10.119  10.475   6.046 -0.0736 -0.3657  0.0880
 9936W        W13534  13.792   4.843  15.836 -0.2084  0.2120 -0.3213
 9937W        W13535  12.764   8.058   5.054 -0.1193 -0.0628  0.0666
 9938W        W13536   9.118  11.434  15.434 -0.1628  0.2276  0.0074
 9939W        W13537  11.838  13.703   9.604  0.0836  0.1963  0.2908
 9940W        W13538  10.884   0.317   2.389  0.0404  0.3442 -0.1526
 9941W        W13539  12.459   0.951  14.427 -0.0987  0.1679  0.4166
 9942W        W13540   3.950   7.271  11.781 -0.1558 -0.0510  0.0525
 9943W        W13541   0.667  15.364  11.481  0.3963  0.1202 -0.4380
 9944W        W13542   1.781   2.804  12.930  0.0630 -0.0122 -0.1498
 9945W        W13543   7.513   8.167   8.962  0.2067  0.0607 -0.0853
 9946W        W13544   5.441   2.404   3.042 -0.1075 -0.0917  0.0408
 9947W        W13545   9.268   9.041   9.772  0.0979 -0.0344  0.1887
 9948W        W13546   0.774  11.222  12.981 -0.2598  0.2050  0.1981
 9949W        W13547   1.195  14.571  12.991 -0.0309  0.3100 -0.1129
 9950W        W13548  11.918   1.135  13.703 -0.1598  0.3712  0.0012
 9951W        W13549   9.625   4.587   6.173  0.3423  0.0137 -0.0917
 9952W        W13550   8.826   3.605   1.528  0.0808  0.2291 -0.0577
 9953W        W13551  16.191  16.332  15.899  0.3012 -0.1324  0.0941
 9954W        W13552   2.670  10.126   5.902  0.1122  0.2317 -0.2523
 9955W        W13553  14.673  11.125   4.759  0.0650 -0.0737  0.1597
 9956W        W13554   0.601   8.014  14.330 -0.2902  0.1677  0.0596
 9957W        W13555   2.839   4.152  10.359  0.1780 -0.0265  0.1049
 9958W        W13556  15.773  16.079   2.627  0.1118  0.2253  0.3155
 9959W        W13557   1.011   1.674   7.716  0.5060 -0.0582  0.1981
 9960W        W13558   2.364   9.969   6.525 -0.1507  0.2182 -0.2241
 9961W        W13559   1.325  16.014   7.879  0.1061  0.1000 -0.0884
 9962W        W13560  13.272   8.090  10.200 -0.0141  0.1381  0.2676
 9963W        W13561   6.193   9.343   5.037 -0.1312 -0.1193 -0.0299
 9964W        W13562   1.521  13.347   0.233  0.0213  0.2383  0.0993
 9965W        W13563  11.744  15.562  13.551 -0.0630  0.1405 -0.2192
 9966W        W13564   8.216   2.250   3.556 -0.0508 -0.1850  0.3053
 9967W        W13565   0.468   1.568  10.882 -0.2205  0.1361 -0.1290
 9968W        W13566   3.997  11.404  12.344 -0.0762  0.3616  0.1072
 9969W        W13567   9.496   0.972   8.862  0.0997  0.2267 -0.1114
 9970W        W13568   5.751   4.140   8.483 -0.2046 -0.0739  0.4007
 9971W        W13569   0.606   2.001   4.221  0.1624  0.1550 -0.2753
 9972W        W13570  13.835  12.520  15.564  0.0775  0.0485  0.3621
 9973W        W13571   1.355   8.388  11.469 -0.0513  0.0566 -0.1329
 9974W        W13572  11.621  13.492   2.149  0.2945 -0.0700  0.2163
 9975W        W13573  13.488  15.226  16.095  0.0845 -0.1201  0.1322
 9976W        W13574  11.674   5.154  15.678 -0.0354  0.2922 -0.0888
 9977W        W13575   0.747  13.953  13.533  0.1181 -0.1211 -0.1888
 9978W        W13576   4.891  10.178  15.799  0.5315 -0.1427 -0.3141
 9979W        W13577   7.889  12.754   3.706  0.2516 -0.2426  0.0760
 9980W        W13578   2.049   3.161  11.060 -0.2828  0.0156 -0.0214
 9981W        W13579   7.630  16.032   3.359  0.2254  0.3092 -0.2144
 9982W        W13580  13.064  13.161   6.613  0.2531  0.2884 -0.0044
 9983W        W13581   7.823  13.342  15.666  0.1009 -0.1117  0.2807
 9984W        W13582  12.714   5.224  11.469 -0.2604 -0.0869 -0.0727
 9985W        W13583  11.327  11.073  14.369  0.2603 -0.1691 -0.1794
 9986W        W13584   3.816   9.965  14.485  0.0586  0.2611  0.0325
 9987W        W13585  15.391  13.141   1.092  0.0085  0.0876 -0.0008
 9988W        W13586   8.610   5.859  14.168 -0.0690 -0.0433 -0.3484
 9989W        W13587   1.921   1.821  12.945  0.2333 -0.0801  0.3150
 9990W        W13588   2.907   6.404   4.500 -0.0121 -0.1986  0.0193
 9991W        W13589   7.388   2.546  14.823 -0.1656  0.0430 -0.1077
 9992W        W13590   2.900   2.634   0.660 -0.0264 -0.1174 -0.0403
 9993W        W13591   6.320  12.794  11.456  0.2851 -0.0777 -0.0219
 9994W        W13592  13.501   6.266  13.735  0.0390  0.0675  0.1790
 9995W        W13593   3.151   7.948   9.837 -0.1814 -0.0800 -0.0959
 9996W        W13594  11.054   7.347  15.587 -0.1715  0.3406 -0.1191
 9997W        W13595   8.820  13.855  10.440  0.2442  0.0113 -0.0163
 9998W        W13596  16.010   6.431  10.903  0.1860 -0.1069 -0.0596
 9999W        W13597   9.344   9.240   2.878 -0.1398 -0.2448  0.2062
10000W        W13598  13.076  12.285   2.625 -0.2621 -0.2656  0.0894
10001W        W13599   9.521   1.406  15.327 -0.1160  0.0649 -0.0335
10002W        W13600   7.660  14.862  10.021  0.0232 -0.0626  0.0655
10003W        W13601   9.409  11.037   4.154  0.2275 -0.1892 -0.1759
10004W        W13602   9.612   3.873   9.935  0.1460 -0.1975  0.0975
10005W        W13603   9.569   1.264   6.607  0.2313 -0.0438  0.2924
10006W        W13604   8.072  14.163  16.143 -0.0881  0.0418  0.1182
10007W        W13605  11.208   2.310   3.657  0.1596 -0.0087  0.3099
10008W        W13606   5.977   5.369   4.052  0.0374  0.1925 -0.0072
10009W        W13607   2.516   9.406  10.678  0.0479 -0.0688  0.2551
10010W        W13608   0.958   5.176   7.056  0.1009  0.1314  0.0035
10011W        W13609  11.074   6.396   0.824  0.1535 -0.2158 -0.1830
10012W        W13610   7.991  12.743   7.957  0.0895 -0.0253 -0.3358
10013W        W13611   9.744   2.001  15.555  0.1147  0.1707  0.0477
10014W        W13612  13.007   6.924  10.004 -0.2238 -0.1932 -0.0178
10015W        W13613   5.231   2.282  12.877 -0.0061  0.0616 -0.0066
10016W        W13614   2.336   8.366  12.318 -0.1057  0.1808  0.1057
10017W        W13615  16.309  11.813   8.901 -0.2854  0.2395  0.0198
10018W        W13616   4.435   5.192   5.703 -0.2797 -0.0411  0.2074
10019W        W13617   1.494   5.396   9.345  0.0941 -0.1029 -0.3241
10020W        W13618   9.870  15.970   2.315  0.0379 -0.1472 -0.3330
10021W        W13619   3.537  12.746  14.085  0.0363 -0.2447 -0.1691
10022W        W13620  14.823   4.654   2.497  0.1090 -0.1493  0.0238
10023W        W13621  10.101   4.488   1.020 -0.0845  0.1112 -0.0150
10024W        W13622  14.178  10.855   6.051  0.1974  0.2762 -0.3088
10025W        W13623   6.398   5.667  13.618  0.3551  0.0529 -0.0734
10026W        W13624  12.098   5.225   7.748  0.3509 -0.0771 -0.2463
10027W        W13625  12.067   7.812  13.679 -0.2115 -0.1660  0.0482
10028W        W13626   4.654   5.496   6.645 -0.0015  0.1941 -0.2826
10029W        W13627  16.011  11.133   9.427 -0.3854 -0.1254 -0.1569
10030W        W13628  14.315  16.209   7.092  0.2996 -0.1052 -0.1749
10031W        W13629  15.738   1.836  14.258  0.1136  0.0351 -0.0064
10032W        W13630   3.978   4.139   8.990  0.3507  0.2175 -0.0188
10033W        W13631   1.580  11.704  14.653 -0.0539 -0.0504 -0.2975
10034W        W13632   5.983   8.577   2.596  0.1313 -0.0985 -0.0563
10035W        W13633   6.570   6.466  11.230  0.1251 -0.0542 -0.0574
10036W        W13634  15.751  16.205  15.505 -0.1200 -0.3946 -0.2872
10037W        W13635   4.584   0.959   1.236  0.4250  0.1025 -0.2372
10038W        W13636   8.508  11.528  11.960 -0.4186 -0.2536 -0.0821
10039W        W13637  12.702  16.128   2.688  0.2374  0.1789  0.2535
10040W        W13638   4.988   9.404   8.569  0.0379  0.0831  0.0970
10041W        W13639   0.858   6.776   6.444  0.0931  0.0101 -0.1145
10042W        W13640  10.155   9.974  12.256 -0.1035 -0.2759 -0.0102
10043W        W13641   2.790  11.989   3.884  0.0261  0.1118  0.2269
10044W        W13642   4.445   8.501   6.924  0.0593  0.2365  0.0863
10045W        W13643   4.829  15.129   4.364 -0.1942 -0.0994 -0.2355
10046W        W13644  10.203   9.644  16.365  0.1440  0.1790  0.0529
10047W        W13645  12.892  13.018  15.248  0.0522  0.2114 -0.0127
10048W        W13646   5.836   2.443   9.452 -0.0463  0.0247 -0.1193
10049W        W13647   6.932   7.480   2.050 -0.0857 -0.0939  0.0853
10050W        W13648   5.181  14.290   6.268  0.1624 -0.0224  0.1627
10051W        W13649   0.392   8.427   0.112  0.0810  0.0189  0.0598
10052W        W13650  14.095   5.761  16.197  0.0074 -0.0863  0.1002
10053W        W13651   9.895  11.507  16.027 -0.0451  0.2782 -0.2279
10054W        W13652  15.646   5.232   4.159  0.1443 -0.0788  0.0450
10055W        W13653  11.094  15.836   7.381  0.0251 -0.3574 -0.3076
10056W        W13654   5.935   8.770   8.584  0.0505 -0.2839  0.0758
10057W        W13655  13.255  12.314   4.727 -0.2312  0.1081  0.0648
10058W        W13656   8.399  14.491   8.216  0.0635  0.0291  0.2569
10059W        W13657   2.026   3.110   1.762 -0.0531 -0.0640  0.2529
10060W        W13658  10.902   5.967   8.953 -0.1077 -0.3444 -0.2313
10061W        W13659  10.290   5.045  10.369 -0.0095  0.0581 -0.1489
10062W        W13660   4.684   5.042   2.005  0.0927  0.3180 -0.0148
10063W        W13661   9.743  14.335  16.111 -0.0910 -0.3610 -0.0678
10064W        W13662   8.378  11.668   9.324  0.0609 -0.1512 -0.3810
10065W        W13663   5.928   1.603  12.711 -0.0456  0.1690 -0.0567
10066W        W13664   5.347   3.086  10.080 -0.2592  0.1353 -0.1591
10067W        W13665   6.664  14.981   6.768  0.1156  0.2471  0.0915
10068W        W13666   1.301  11.591   5.202  0.2530 -0.1457  0.4781
10069W        W13667  11.903   2.292  11.127 -0.0972  0.1928  0.0727
10070W        W13668   1.761  13.639  12.788  0.0256 -0.0661 -0.1036
10071W        W13669  14.928   4.298  10.034  0.1158 -0.2884 -0.0359
10072W        W13670  15.237  12.365   0.378  0.0734  0.1782  0.0957
10073W        W13671   5.060  13.715   9.333  0.1295 -0.3627 -0.1309
10074W        W13672   3.955   2.304   6.712  0.1124 -0.2300  0.1448
10075W        W13673   4.455  12.122   5.958  0.0591  0.2586 -0.1020
10076W        W13674   0.639   3.367  13.510 -0.0887 -0.0515  0.0106
10077W        W13675  13.182  16.184   7.705  0.0290 -0.0712  0.2042
10078W        W13676  15.626   1.857  10.838  0.3098  0.3551 -0.0620
10079W        W13677   7.130   7.882   0.737  0.1227 -0.3033 -0.2239
10080W        W13678  13.377   4.957  16.226  0.0839  0.2418 -0.0775
10081W        W13679  12.875  10.058  15.615 -0.2780  0.0555  0.0503
10082W        W13680  14.869   8.771   1.713 -0.1476 -0.0984 -0.0351
10083W        W13681   2.456   6.141   1.189 -0.0671 -0.1002 -0.1679
10084W        W13682  14.931  11.376   8.980 -0.2538 -0.0335  0.0479
10085W        W13683  13.143   0.623   1.227  0.0482 -0.1147  0.1516
10086W        W13684   5.415   0.829   2.954 -0.2002  0.1052 -0.0644
10087W        W13685   9.103   0.020  12.750 -0.2930 -0.2234 -0.1633
10088W        W13686  16.216   0.539   3.434  0.0840  0.0723  0.1966
10089W        W13687  14.643  13.272   3.999 -0.3202  0.2092 -0.2776
10090W        W13688   3.095  10.321   6.103 -0.2683 -0.1703  0.2639
10091W        W13689  10.148   7.145  10.511 -0.0828 -0.1972 -0.3459
10092W        W13690   0.952   4.541  12.746  0.1709 -0.3745 -0.3861
10093W        W13691  13.482   2.479  12.419  0.2463  0.3179 -0.0653
10094W        W13692  10.542   5.755   9.814 -0.0231  0.0313  0.0269
10095W        W13693   9.561   2.177   8.894  0.0330 -0.1048 -0.0644
10096W        W13694   6.961   0.560   7.882  0.0181  0.1097  0.1438
10097W        W13695   7.207  14.281   6.647  0.1953 -0.2979  0.0138
10098W        W13696   7.489   0.804  16.268  0.0843 -0.2715  0.0249
10099W        W13697  10.470  13.827   3.316 -0.0819 -0.0523  0.0979
10100W        W13698   0.902  14.539  16.121 -0.4736 -0.0678  0.2911
10101W        W13699  11.353   7.487   3.826  0.1109  0.1046 -0.1661
10102W        W13700   5.450   4.326  10.766  0.0269 -0.0216 -0.2246
10103W        W13701   4.777   2.388   7.825 -0.2439  0.0926  0.0387
10104W        W13702   3.063   0.117  13.886 -0.2738  0.2383 -0.0839
10105W        W13703  12.937   9.927   4.901 -0.0295 -0.2500  0.1622
10106W        W13704  15.685  10.734   1.042  0.0326  0.3395  0.2345
10107W        W13705  14.022  16.266  13.892  0.1408 -0.0381 -0.1299
10108W        W13706   0.725   5.929   6.469  0.0489 -0.0766 -0.0343
10109W        W13707  12.743  15.597   1.968  0.0975  0.2038  0.0066
10110W        W13708  13.854   4.186   7.170  0.0873 -0.1694  0.0136
10111W        W13709   3.070  12.921   7.005  0.0416  0.4503 -0.1923
10112W        W13710  13.105  11.091  16.308 -0.0506  0.1002 -0.1599
10113W        W13711   6.510  11.763  13.593  0.2392  0.3299 -0.0391
10114W        W13712   3.854  13.913   1.757  0.0903 -0.0514 -0.0934
10115W        W13713   9.771  12.207   4.801 -0.0813 -0.2181  0.0136
10116W        W13714  13.587   9.244   1.598 -0.2274 -0.1026  0.1524
10117W        W13715  12.258   8.906   4.934 -0.2464 -0.1157 -0.0106
10118W        W13716   3.200  15.931   9.492  0.1055  0.2202 -0.0246
10119W        W13717   8.184  12.988   2.883 -0.0352  0.0043  0.2893
10120W        W13718   7.288  14.027   7.561  0.3339 -0.3199 -0.4015
10121W        W13719  11.386   2.145   5.789  0.0334 -0.0044 -0.1196
10122W        W13720   9.532  13.422  14.094 -0.0362  0.0299  0.1908
10123W        W13721  11.336   5.751   2.664 -0.0384 -0.1262 -0.1647
10124W        W13722  15.199  13.066  10.346 -0.0846  0.2394 -0.0347
10125W        W13723   8.418  10.979  15.005  0.1879 -0.0229 -0.4243
10126W        W13724   5.921   0.792  10.702 -0.2500  0.0985  0.3121
10127W        W13725   0.200  12.794  15.127 -0.0021  0.4629 -0.0515
10128W        W13726  15.710  14.664  13.721 -0.1974 -0.1090  0.1738
10129W        W13727  11.417   1.018   0.080  0.0856  0.0921  0.1599
10130W        W13728   1.934  11.484  11.692  0.0406  0.0837 -0.0636
10131W        W13729   9.212   2.110  13.802 -0.4354 -0.0299  0.0177
10132W        W13730   0.693   6.770  15.532 -0.3409  0.0949 -0.0857
10133W        W13731  14.044  11.208   2.677  0.2237 -0.1768 -0.3723
10134W        W13732   7.535   8.806   1.853  0.0540  0.1262 -0.0407
10135W        W13733  14.842  13.383   7.158 -0.0526 -0.2540  0.0250
10136W        W13734   1.963  13.784   7.146 -0.2591  0.3176 -0.0251
10137W        W13735  10.295   4.556  10.517 -0.4480 -0.0835  0.2688
10138W        W13736   8.699  11.218   8.694  0.1755 -0.0573  0.3008
10139W        W13737   5.887   7.294   3.225  0.0014 -0.3378  0.2953
10140W        W13738  12.030  15.984   1.666  0.1937 -0.1285 -0.1125
10141W        W13739   3.359   7.849   2.025 -0.0709  0.0196 -0.0126
10142W        W13740   2.256  11.693   9.063 -0.0659 -0.0079 -0.2046
10143W        W13741  15.831   5.225  14.746  0.0475  0.0812  0.1857
10144W        W13742   1.936   8.548  14.915  0.0176 -0.0487  0.1067
10145W        W13743   7.032   9.906   7.546 -0.0590 -0.0141 -0.0425
10146W        W13744   1.433   5.908   7.263  0.0730  0.2502  0.0534
10147W        W13745  16.311  11.093  13.517 -0.1438  0.3036  0.0303
10148W        W13746   6.780   0.052  10.917  0.3869  0.1250 -0.3169
10149W        W13747  12.114   9.349   7.027 -0.1150  0.2215  0.1325
10150W        W13748   1.221  14.706   6.473  0.1044 -0.1530  0.0103
10151W        W13749   6.911   3.981  12.098  0.1885  0.1568 -0.0084
10152W        W13750   3.975  12.585  16.162  0.0233  0.1357 -0.2437
10153W        W13751  10.480   3.243   9.121 -0.0376 -0.3909 -0.1479
10154W        W13752   9.931   5.241  15.260 -0.1556 -0.0942  0.0707
10155W        W13753   1.777   4.820  12.394 -0.0543  0.1582 -0.1006
10156W        W13754   4.356  10.847   1.757  0.0022  0.1217 -0.0462
10157W        W13755   5.832   7.336  10.424 -0.1244 -0.2441  0.0263
10158W        W13756  15.372  14.895  14.113 -0.0674  0.0668 -0.2286
10159W        W13757   6.770  15.983   1.539 -0.1077 -0.1935 -0.0474
10160W        W13758  12.473   1.572  16.311  0.0424  0.1260  0.0045
10161W        W13759   3.498   2.517   2.207  0.3089 -0.2232  0.1967
10162W        W13760   7.116   4.598   1.639 -0.0878 -0.1616  0.1436
10163W        W13761  13.610   8.523   3.634 -0.0936  0.0395  0.1662
10164W        W13762   1.724   5.097   3.157  0.2183  0.1898  0.0937
10165W        W13763   0.994   0.730   4.464 -0.2192  0.2813  0.3019
10166W        W13764   2.084   1.276  11.803 -0.2595 -0.0131  0.2359
10167W        W13765   2.271  14.948  10.268 -0.0218  0.2972  0.0567
10168W        W13766  12.527  12.697   9.002  0.0307  0.1108 -0.2330
10169W        W13767  15.209  12.096   5.364  0.0692  0.0678  0.0123
10170W        W13768  10.044  12.481   5.092  0.1647 -0.2297  0.0145
10171W        W13769  10.705   6.573   0.146  0.0593 -0.1932  0.1002
10172W        W13770   3.192  16.392   9.234 -0.0142  0.0509 -0.0222
10173W        W13771   6.916   4.882  12.338  0.1973  0.1306 -0.1145
10174W        W13772   6.062  11.831  14.413  0.1585 -0.0061 -0.2724
10175W        W13773   1.391   6.131  16.160 -0.3303  0.1256 -0.0246
10176W        W13774   4.926   3.932  13.183  0.0328 -0.2060  0.3193
10177W        W13775   9.042   5.541   6.685 -0.0489  0.0704 -0.0165
10178W        W13776   2.060  13.842   0.028  0.0970  0.2077  0.2559
10179W        W13777   0.962   8.874   8.341  0.1851 -0.1519 -0.2364
10180W        W13778  10.792  13.917   4.096  0.1623 -0.0071  0.0104
10181W        W13779  10.506   6.546   5.454  0.0266  0.0864  0.1785
10182W        W13780  11.299   0.282   1.818  0.3778 -0.0728  0.1905
10183W        W13781   7.785   0.390  16.238  0.1471 -0.3820 -0.1038
10184W        W13782   6.785   3.748   9.032 -0.0032  0.0772  0.0748
10185W        W13783  10.758   0.709   2.097 -0.0826  0.0825  0.1499
10186W        W13784  11.355   4.572  13.352  0.0043 -0.2495 -0.0249
10187W        W13785  14.273   4.110   8.133 -0.1742  0.0271  0.3379
10188W        W13786   8.132  12.683   0.042  0.0198  0.2069  0.0060
10189W        W13787  14.253  11.493   7.394  0.1907 -0.1592  0.0930
10190W        W13788  12.266  11.021   3.948  0.1829 -0.2088 -0.0734
10191W        W13789   2.796  14.874  11.892 -0.0414  0.1747 -0.4386
10192W        W13790   3.229   6.688  10.818  0.1146 -0.1548 -0.2128
10193W        W13791   5.529  13.952   4.736 -0.0255 -0.0851  0.0362
10194W        W13792  15.739  11.708  11.880  0.2550  0.2630 -0.0244
10195W        W13793   2.688  10.702   3.694  0.1462 -0.3796 -0.0294
10196W        W13794  13.384   6.541  16.129 -0.4905  0.1577 -0.1754
10197W        W13795  13.881  15.470  15.630  0.3302 -0.1379  0.1182
10198W        W13796   2.394   8.537   4.106  0.1481  0.0296  0.0424
10199W        W13797   6.003   8.105   7.254  0.0719 -0.0011 -0.2586
10200W        W13798   0.900   1.292   4.085  0.0921  0.0389  0.1901
10201W        W13799  12.111  10.208   4.720 -0.2024  0.0144  0.4322
10202W        W13800   8.994  10.968  14.634  0.1275 -0.2129  0.1580
10203W        W13801   5.979   4.592   5.372 -0.2514  0.0546 -0.1018
10204W        W13802   9.363  15.557  10.982 -0.0934  0.2171  0.0437
10205W        W13803  12.187  15.666  13.799  0.0545 -0.2920  0.0198
10206W        W13804   8.902   0.902  15.134  0.0331  0.3160 -0.1335
10207W        W13805   0.211   5.640  15.891  0.0530 -0.1917  0.0846
10208W        W13806  10.734   1.885   1.671 -0.0594  0.2253  0.0825
10209W        W13807  13.841   2.413   2.009 -0.1184 -0.0113  0.2705
10210W        W13808   9.715  14.800  13.258  0.1945  0.0895  0.1773
10211W        W13809  15.607   4.142   8.857 -0.1223 -0.1533  0.3050
10212W        W13810   4.154  13.550   4.823 -0.1275 -0.1541  0.1339
10213W        W13811  11.472  13.259  12.943 -0.0294 -0.1743 -0.2150
10214W        W13812   2.121   6.138   1.751  0.0158 -0.2257 -0.2596
10215W        W13813   9.811   5.219   8.757 -0.0644 -0.1848  0.4483
10216W        W13814   9.792   8.025   4.656  0.0028  0.0759 -0.0723
10217W        W13815   0.639   1.261  14.499 -0.1195 -0.1756  0.0839
10218W        W13816   3.997   2.199  14.824  0.2315  0.3307  0.2774
10219W        W13817   1.857   1.058   0.644  0.0014 -0.4171  0.1238
10220W        W13818  16.182  10.815   1.019  0.2049  0.0332  0.0950
10221W        W13819   6.686   6.881  11.857 -0.0949 -0.1577 -0.0553
10222W        W13820  16.146   6.912  11.149  0.1116  0.1111  0.2295
10223W        W13821  10.756   0.097  16.365 -0.2139 -0.0248 -0.1620
10224W        W13822   5.302  16.114   5.234  0.0398  0.0816 -0.0428
10225W        W13823   6.028   4.964  14.694  0.0211 -0.0904  0.1008
10226W        W13824   0.632   3.671  14.002 -0.2975 -0.0472  0.2601
10227W        W13825   5.333   7.931  16.176 -0.0491 -0.2308  0.0160
10228W        W13826  15.477  12.928  15.423 -0.1412 -0.1057 -0.0476
10229W        W13827  14.960  15.021  16.152 -0.0665 -0.1718 -0.0273
10230W        W13828   0.270   4.182   6.399  0.0282 -0.3515  0.3071
10231W        W13829  12.552  11.246  16.143 -0.0403  0.0009  0.2647
10232W        W13830   2.865  13.023   7.996  0.0035 -0.0774  0.1705
10233W        W13831  15.311  16.281  14.070 -0.1292  0.1386  0.1414
10234W        W13832   6.060   4.124   2.593 -0.2709  0.1206 -0.2148
10235W        W13833  16.244   7.061   6.679  0.1704  0.0584 -0.2745
10236W        W13834   1.001  10.212   0.452  0.1196  0.3031  0.2170
10237W        W13835   7.028  15.487   5.505  0.2509 -0.1405 -0.1241
10238W        W13836   8.690   3.656  10.176 -0.0331 -0.0878 -0.1092
10239W        W13837   4.387  13.888   8.467  0.0184 -0.1177 -0.0093
10240W        W13838  13.071   4.769   5.756  0.2521 -0.2392 -0.1424
10241W        W13839  14.700   8.344   8.520 -0.1050 -0.2972  0.4495
10242W        W13840  10.180   0.917   4.500  0.1669  0.3227  0.0109
10243W        W13841  11.873   7.281  10.520  0.0330  0.1610  0.1082
10244W        W13842   8.891  13.261  10.064  0.1072  0.0418 -0.1551
10245W        W13843  12.373  15.854  15.250 -0.1019 -0.3626  0.0376
10246W        W13844  13.010   9.090  16.203 -0.2391 -0.3466  0.1717
10247W        W13845  10.108   6.541  13.253 -0.1385 -0.0422  0.0541
10248W        W13846   7.241   5.958   6.151 -0.2992  0.0156 -0.0810
10249W        W13847  12.177  12.755   0.814  0.0600  0.1383 -0.1638
10250W        W13848  15.941   8.775  10.839  0.0821  0.0846 -0.0975
10251W        W13849   8.035  10.058  14.031  0.2530 -0.0952  0.1861
10252W        W13850  10.808  12.115  13.305  0.5345 -0.1244  0.1199
10253W        W13851   6.792   0.361   0.581  0.0259 -0.0220  0.0651
10254W        W13852  11.178   4.811  11.998 -0.1279  0.1857  0.0818
10255W        W13853  10.723   2.608   0.043 -0.1733 -0.0805 -0.0022
10256W        W13854  11.221   5.011   4.516  0.0373 -0.3220  0.1943
10257W        W13855   5.680  11.939   7.260  0.0105  0.2007  0.0842
10258W        W13856   9.136   4.449   8.196  0.0050  0.3588 -0.1598
10259W        W13857  14.079  14.987   0.730 -0.2494 -0.1067 -0.0061
10260W        W13858   6.132  15.609   5.555  0.0552  0.0293  0.1963
10261W        W13859   9.606   4.540   5.361 -0.0542  0.0706 -0.0919
10262W        W13860   1.564   5.284   4.115 -0.1474  0.0462 -0.1193
10263W        W13861  13.269  12.216   0.512  0.6007  0.3087 -0.2125
10264W        W13862   5.837   8.214   0.412  0.1405 -0.1262 -0.2555
10265W        W13863   9.860  16.335   9.606 -0.0705 -0.2118 -0.0470
10266W        W13864  14.329   9.515   5.956  0.0843 -0.0238  0.0593
10267W        W13865   9.795   4.787   5.779 -0.0254  0.2644  0.0323
10268W        W13866  13.583  15.857   0.596  0.1978 -0.1369 -0.2852
10269W        W13867   1.606   0.186  11.396  0.2232 -0.1507  0.2833
10270W        W13868   6.273  13.805  11.279  0.1634  0.0588  0.1376
10271W        W13869   7.428  10.378  11.154  0.1679 -0.4048 -0.2986
10272W        W13870   3.005   9.923   5.615 -0.0146 -0.3926 -0.1173
10273W        W13871   5.709  14.384   7.526 -0.1399 -0.2121 -0.0235
10274W        W13872   8.701   9.130  14.633 -0.2727  0.1160  0.0911
10275W        W13873  12.819   9.589  13.754  0.2042 -0.1788  0.0910
10276W        W13874   0.883   4.399   1.792  0.0266 -0.1771 -0.0209
10277W        W13875  15.330  11.086   8.909  0.0901  0.1288 -0.0087
10278W        W13876   7.138   6.971   5.872 -0.1022  0.1205 -0.2410
10279W        W13877   1.835  12.789   4.336 -0.4592 -0.3553  0.0566
10280W        W13878  15.409   3.654  11.545 -0.0138  0.0701 -0.1994
10281W        W13879  10.843   8.455   4.728 -0.2518 -0.0764 -0.0573
10282W        W13880   3.349  14.119   8.426  0.2162 -0.1292 -0.3458
10283W        W13881   1.846   7.742  11.998  0.0909 -0.3142 -0.0488
10284W        W13882   4.494   9.562   7.853 -0.1701  0.4128 -0.0216
10285W        W13883   5.789  14.403  15.890  0.2301 -0.0935 -0.3057
10286W        W13884   1.144  14.782  12.100 -0.0770  0.0351 -0.0797
10287W        W13885   1.238   6.848   6.778  0.3852  0.0620 -0.3587
10288W        W13886  10.585   5.599   7.658  0.0800  0.2343 -0.1396
10289W        W13887   8.704   4.837  12.865 -0.1839 -0.0105  0.0074
10290W        W13888   7.323   7.705   7.106 -0.1219 -0.1471 -0.0741
10291W        W13889   4.348   4.715  11.541  0.2081 -0.1693  0.2508
10292W        W13890  12.190   9.885  12.068 -0.2229  0.1191 -0.0122
10293W        W13891   4.965   1.214   6.493  0.0931  0.0510  0.1223
10294W        W13892   8.214   5.171   7.786 -0.1951 -0.1504  0.1296
10295W        W13893   5.087   9.196   2.881 -0.2366 -0.0496  0.1092
10296W        W13894  10.747  13.731   0.224 -0.0428 -0.0457  0.1097
10297W        W13895  11.570   9.939  12.847 -0.2082 -0.0693 -0.0582
10298W        W13896   9.091   2.467   5.105  0.2276 -0.1000 -0.0197
10299W        W13897   7.163   8.261   8.314  0.1459  0.0408 -0.2140
10300W        W13898  12.731  10.898   7.670 -0.0115  0.1265 -0.0126
10301W        W13899   3.938   1.814  15.227  0.0800  0.1124 -0.3602
10302W        W13900   3.154   3.869  12.844  0.0502  0.1045  0.1744
10303W        W13901   7.231   4.885   1.063  0.5883  0.1213  0.1766
10304W        W13902  11.730   5.686   0.679  0.0747 -0.0482 -0.0360
10305W        W13903  16.352  15.304  11.152  0.1199  0.3168  0.1196
10306W        W13904   5.494  13.446   4.576  0.4006  0.3682 -0.0394
10307W        W13905  10.303   8.591   8.130  0.0417 -0.1157  0.0538
10308W        W13906   0.822  11.632   0.146  0.1235 -0.0566  0.2102
10309W        W13907  13.176   3.756   9.369  0.1374 -0.0634 -0.2334
10310W        W13908   8.973   7.950  12.428  0.3840  0.0428  0.0303
10311W        W13909  10.371   9.239   0.319 -0.1977  0.2434  0.1468
10312W        W13910   2.709  12.820  13.435  0.1428 -0.0632  0.2028
10313W        W13911  10.800  16.280  12.997 -0.0424  0.0082  0.1601
10314W        W13912  15.844  15.755  11.037 -0.1638 -0.3297  0.0140
10315W        W13913   6.636  10.961   0.787  0.1554 -0.2925  0.1320
10316W        W13914   1.768  10.341   4.965  0.0866 -0.0312 -0.1024
10317W        W13915   4.089   8.485  12.578 -0.2275 -0.4529 -0.1778
10318W        W13916   0.235  14.128  14.773  0.0483  0.0912  0.3169
10319W        W13917  13.849   8.463  11.534  0.2777 -0.1965  0.1446
10320W        W13918  10.295  13.318  11.389 -0.2675 -0.2835 -0.0351
10321W        W13919  13.903   7.718   7.367 -0.5648  0.2352 -0.2587
10322W        W13920  10.552  14.625   5.824 -0.1577 -0.0484  0.3526
10323W        W13921   4.940   5.717  16.384  0.3080  0.1379  0.0310
10324W        W13922  10.412  14.446   9.816 -0.1604 -0.2124 -0.1269
10325W        W13923   7.370   5.420   1.089  0.0156  0.5324  0.0250
10326W        W13924   0.930   6.367  13.768 -0.0551  0.1436  0.1646
10327W        W13925   3.516   6.572  14.752 -0.4759 -0.1257 -0.3407
10328W        W13926  10.393  11.366  15.679 -0.2002 -0.1557 -0.0936
10329W        W13927  12.482   5.526  11.984  0.0254  0.0487  0.0399
10330W        W13928   3.043   9.599   3.026  0.1755 -0.0494  0.0098
10331W        W13929   9.864  15.545  10.219 -0.3308 -0.0631  0.0392
10332W        W13930  13.650  10.356   0.275  0.5073 -0.1488  0.1995
10333W        W13931   5.313   8.492  12.991 -0.2688 -0.3063  0.0188
10334W        W13932  10.938  12.311   4.330 -0.1304  0.0158  0.2436
10335W        W13933  11.194  10.352   0.898 -0.1750 -0.0920 -0.0527
10336W        W13934   1.622   2.640   1.116  0.3752 -0.1425 -0.0688
10337W        W13935   0.570  15.469   6.811  0.0488 -0.2541  0.1851
10338W        W13936  14.998   6.057   7.702 -0.0016 -0.0362 -0.3206
10339W        W13937  13.825   5.868  15.073  0.0152  0.2072 -0.2533
10340W        W13938  11.006  14.192  10.676  0.4439 -0.1093  0.0790
10341W        W13939   1.132   3.377   4.869 -0.0580  0.1625  0.1641
10342W        W13940  10.195  12.479  11.719 -0.0365  0.1831  0.0427
10343W        W13941  14.199  14.154   8.560  0.0639 -0.1078  0.1564
10344W        W13942  13.661   3.221  15.499  0.3217 -0.2068 -0.1934
10345W        W13943  10.002  12.998   3.656  0.0879 -0.0586  0.1397
10346W        W13944  16.103   4.769   1.237  0.0759 -0.4558  0.1686
10347W        W13945   3.302  11.262   2.264 -0.0505 -0.1590 -0.0572
10348W        W13946   7.166  11.581   7.749  0.4156  0.1262 -0.1868
10349W        W13947   7.196   7.630  15.573  0.5343  0.2026  0.0886
10350W        W13948  14.191   4.008   9.516  0.2132 -0.1577  0.0777
10351W        W13949   9.784  13.762   9.855 -0.0058  0.0307 -0.0918
10352W        W13950  12.398  13.135   1.163  0.0253  0.0432  0.3256
10353W        W13951  14.666   2.151  13.591  0.0284 -0.1258 -0.2274
10354W        W13952   5.132   6.232   4.260 -0.0595  0.1789 -0.2081
10355W        W13953  14.608   4.604   6.834 -0.3454 -0.0909 -0.2427
10356W        W13954  10.588   1.241  16.172 -0.4542 -0.0000  0.2984
10357W        W13955   0.265   9.370   6.055  0.0361  0.0034  0.3055
10358W        W13956  12.879   5.124   4.995 -0.1304  0.0167  0.1710
10359W        W13957   1.135   4.923  15.338 -0.1456 -0.1984 -0.1304
10360W        W13958   8.208  10.300   3.526  0.1026 -0.3354  0.0354
10361W        W13959   9.363  10.567   3.072  0.2699 -0.0465 -0.3639
10362W        W13960   8.912  12.819  14.466  0.1563  0.1365 -0.2053
10363W        W13961   0.934   7.557  13.069 -0.0154  0.2817 -0.2825
10364W        W13962  15.588   7.891  12.812  0.1748  0.2901  0.2027
10365W        W13963  11.067   4.278   5.831 -0.2232  0.2282  0.0738
10366W        W13964   1.770   8.624   7.998  0.0960  0.1518 -0.0396
10367W        W13965   2.064   3.460   9.954 -0.0354 -0.1175  0.1531
10368W        W13966   7.414  15.688  13.760  0.0542  0.0308  0.0045
10369W        W13967   9.971   7.857  10.043  0.0056  0.0679  0.0991
10370W        W13968   0.527   7.250  14.829 -0.2300  0.2573 -0.1175
10371W        W13969  15.280   5.290  14.323 -0.0899 -0.1456 -0.1464
10372W        W13970  15.900   0.651   5.555 -0.3568 -0.1189  0.1074
10373W        W13971  10.194   0.185  12.333  0.4101 -0.1412  0.1616
10374W        W13972   3.195  15.202  15.707 -0.1973  0.3535  0.1826
10375W        W13973  11.993   0.399  13.304  0.0103  0.2680  0.0532
10376W        W13974   8.208  11.447  14.956 -0.3045  0.2521  0.0046
10377W        W13975  13.640  14.952   0.980  0.0351  0.1054 -0.1844
10378W        W13976   9.405  10.025   5.457  0.1779 -0.1198  0.2076
10379W        W13977  11.401  12.489  10.787 -0.2632  0.1161  0.1342
10380W        W13978  14.576  12.533   4.563  0.1460  0.1995 -0.0255
10381W        W13979   4.785  14.529   1.130 -0.0494 -0.0952 -0.1175
10382W        W13980  11.462  16.002   6.497 -0.2291 -0.0763 -0.0397
10383W        W13981  13.111   9.750   2.108  0.6608  0.0925 -0.0366
10384W        W13982   6.904   0.868   9.627 -0.2858 -0.2288  0.1339
10385W        W13983   0.732   2.057   6.481 -0.1574 -0.2155 -0.0996
10386W        W13984  10.215   4.191   7.389 -0.2069 -0.2030  0.3272
10387W        W13985   0.045  11.852  15.730  0.1834 -0.1430  0.0634
10388W        W13986   0.167  12.748   6.375  0.2279  0.0080 -0.0244
10389W        W13987  12.312   1.416   2.828  0.2648 -0.1839 -0.4514
10390W        W13988   3.343  11.533   9.882  0.1471 -0.0434 -0.0616
10391W        W13989   8.629   0.937   4.832 -0.0087 -0.2264  0.1622
10392W        W13990   9.313   0.143   7.678  0.1101 -0.0234 -0.4230
10393W        W13991  10.372   7.351  13.937  0.0136 -0.1640  0.0878
10394W        W13992   7.458  13.724  15.602  0.4283 -0.1766 -0.1320
10395W        W13993  14.699  11.314  13.684 -0.1490 -0.0908 -0.2321
10396W        W13994  16.393   1.245   5.488  0.0387  0.0928 -0.1242
10397W        W13995   9.476  13.761   2.169  0.1446  0.2252 -0.0395
10398W        W13996  11.932   0.990   4.663 -0.0625 -0.1474  0.1410
10399W        W13997   5.335   2.431  11.877 -0.2819  0.3317 -0.2839
10400W        W13998   2.518   1.725  10.887 -0.1658 -0.1773  0.0271
10401W        W13999  11.896   1.859  10.304 -0.0275 -0.1245  0.0340
10402W        W14000   0.910  11.138   1.122 -0.2476  0.3185 -0.2842
10403W        W14001   7.751   7.136  11.681  0.0243 -0.1903 -0.1338
10404W        W14002  16.141   4.549   5.884 -0.1290 -0.2441  0.2277
10405W        W14003  12.016  12.962  16.283 -0.0431 -0.3232 -0.0797
10406W        W14004  14.061  13.613  11.853  0.0961 -0.1879  0.1410
10407W        W14005  13.701   0.325  15.668 -0.0089 -0.0377  0.1341
10408W        W14006  14.574   0.880   8.527 -0.0098 -0.2308 -0.4108
10409W        W14007  12.335   2.678   9.390 -0.0091  0.1785  0.0270
10410W        W14008   6.795   4.723   8.245  0.0227  0.0060  0.1548
10411W        W14009  10.295   0.560  13.548  0.1938 -0.3197 -0.0334
10412W        W14010   0.042   1.637   8.635 -0.2515 -0.0849  0.2062
10413W        W14011  12.128  15.049   1.129  0.1269 -0.0089 -0.0535
10414W        W14012   0.283   6.342  16.343  0.1136  0.2371  0.1931
10415W        W14013   8.695   4.418  12.489 -0.0830 -0.2286  0.0767
10416W        W14014  13.764   3.703  15.699 -0.0076 -0.1014 -0.1222
10417W        W14015  11.439   2.984   5.488  0.1333 -0.2858  0.1012
10418W        W14016   0.402  10.294  11.434 -0.2857 -0.2018 -0.0597
10419W        W14017   4.772  15.559   1.983  0.0777  0.2491  0.0135
10420W        W14018   8.184  10.791   0.391  0.0233  0.0852  0.0554
10421W        W14019  11.132   1.266   6.117 -0.1526 -0.0722 -0.2717
10422W        W14020   3.801   9.003   7.685 -0.0579 -0.0061 -0.0687
10423W        W14021   3.456  13.845  11.990  0.0422 -0.0044  0.0582
10424W        W14022  16.364  15.894   0.850 -0.1467  0.0223 -0.1837
10425W        W14023   3.147   0.603   1.752 -0.0360  0.0024 -0.0532
10426W        W14024   1.113   4.279   4.419  0.2166 -0.0865 -0.1734
10427W        W14025   1.281  15.532   7.718 -0.3374  0.2193 -0.0379
10428W        W14026   2.236   3.563   8.512 -0.1421 -0.1205  0.3559
10429W        W14027   6.567  15.333   9.761 -0.0307 -0.0383  0.3916
10430W        W14028  16.330   0.463  15.863 -0.2955 -0.3244 -0.1199
10431W        W14029   7.701   9.772   9.443  0.1046 -0.0998  0.0162
10432W        W14030  10.481   2.649  15.362  0.2693  0.0155 -0.0118
10433W        W14031   5.137   3.061  14.324  0.2884 -0.0011  0.2235
10434W        W14032   0.359  14.597   0.627 -0.2000 -0.3161  0.0809
10435W        W14033  14.509  15.770   0.091  0.1885  0.0283  0.0818
10436W        W14034  11.239   9.681   2.252  0.1953  0.0694  0.0913
10437W        W14035   8.929   1.113  14.015 -0.1656 -0.3657  0.1651
10438W        W14036   6.149  10.647   5.128 -0.0896  0.0475  0.3158
10439W        W14037   7.130   0.835   0.689  0.0726  0.2571 -0.2956
10440W        W14038   2.850   1.491  11.197  0.2700 -0.1055  0.1809
10441W        W14039  13.557   3.994   7.496 -0.4061  0.2423 -0.0888
10442W        W14040  10.746  16.392   0.952 -0.3350 -0.1164  0.0944
10443W        W14041  13.347  15.135   4.139  0.0033 -0.1045 -0.1134
10444W        W14042   6.923   2.510   9.793 -0.0666 -0.0373 -0.2678
10445W        W14043   9.188   0.566   7.450  0.0473  0.0508 -0.0921
10446W        W14044   1.506  15.916  11.901 -0.1171  0.0195 -0.0897
10447W        W14045   2.906  12.667   2.360 -0.0613  0.0265  0.4377
10448W        W14046   3.628  14.148   3.663  0.1808 -0.1191 -0.2182
10449W        W14047   0.076  12.559  10.467 -0.0411  0.2578  0.3202
10450W        W14048   6.538   9.082   3.538  0.3469  0.1151 -0.0965
10451W        W14049   3.141   6.441   8.127 -0.1040 -0.0958 -0.0066
10452W        W14050   0.588  16.232  10.566  0.2750 -0.3081  0.2121
10453W        W14051   9.225  14.799  13.494 -0.1058  0.1621  0.2715
10454W        W14052  10.145   4.364   1.574 -0.1776 -0.2535  0.0427
10455W        W14053  13.640  12.628   0.108  0.2390 -0.0520 -0.0399
10456W        W14054  13.855  12.733  13.048 -0.1256  0.3455  0.1154
10457W        W14055   6.124   6.473  10.378  0.0582  0.0053  0.1128
10458W        W14056   9.676   1.947   4.634  0.2025 -0.3506  0.0784
10459W        W14057   7.287   4.417  15.719  0.3579  0.1628  0.0558
10460W        W14058   8.001   5.428  12.550  0.1743 -0.1786 -0.2769
10461W        W14059  14.937  15.108   0.880  0.1152  0.2804 -0.1811
10462W        W14060   6.917  12.787  11.444  0.0352 -0.1287  0.0414
10463W        W14061   1.987  15.115   3.199 -0.1934  0.2953 -0.2464
10464W        W14062  12.445  10.926  13.496  0.1660 -0.2359 -0.4622
10465W        W14063   4.374  16.365  10.783  0.1549 -0.2709  0.1854
10466W        W14064   4.218  13.919   2.427 -0.0859  0.1760  0.1221
10467W        W14065   2.854   7.134   9.468  0.1453 -0.0571 -0.0913
10468W        W14066   2.841   1.027   8.749 -0.2613 -0.1575 -0.0428
10469W        W14067   9.570   9.628   7.632 -0.1004 -0.1096 -0.0536
10470W        W14068  15.358   9.434  11.347  0.0605  0.1279  0.0293
10471W        W14069   7.546   1.231  12.208 -0.0688 -0.0454 -0.1093
10472W        W14070  12.310   1.171   4.983 -0.1041 -0.1099  0.3608
10473W        W14071   6.048  10.450   9.273 -0.2379 -0.0867  0.2476
10474W        W14072  16.278   5.835   0.956 -0.1940  0.1974  0.1943
10475W        W14073  12.271   1.087  12.864  0.0425 -0.1374 -0.1053
10476W        W14074  13.664   0.083   1.884  0.1608  0.0885  0.1117
10477W        W14075   2.302  14.225  10.792  0.1217  0.0109 -0.0725
10478W        W14076   3.529   8.251   4.481  0.0675  0.0499 -0.0076
10479W        W14077   0.119  10.474   3.152  0.1141  0.1221 -0.0970
10480W        W14078   9.556  13.086  12.197 -0.2959 -0.2346  0.2705
10481W        W14079   6.892   2.050   1.137 -0.0088  0.1325 -0.1548
10482W        W14080  10.673  10.751   3.738  0.3762 -0.2809  0.0070
10483W        W14081  16.113   5.653  10.104  0.0920  0.0159 -0.2745
10484W        W14082   7.767   2.243   3.362  0.1989  0.0097  0.2379
10485W        W14083   3.489  10.969  10.127 -0.0179 -0.1577  0.0976
10486W        W14084   8.051  10.109   4.801  0.1985  0.0652 -0.2296
10487W        W14085  10.986   0.379   6.623  0.1904  0.0654 -0.0160
10488W        W14086   2.321   4.621  14.248  0.2933 -0.1443 -0.3850
10489W        W14087   8.773   8.306   2.818  0.2578  0.2372  0.0062
10490W        W14088  11.502  15.186   9.825 -0.1871 -0.0140 -0.0124
10491W        W14089   0.844  11.248   3.231  0.0716 -0.0726 -0.1859
10492W        W14090  13.563   1.188   6.585  0.1788  0.0874  0.4407
10493W        W14091  15.371   2.898  15.239 -0.1801  0.1666  0.0834
10494W        W14092   5.421  13.775  11.880 -0.2758 -0.0441 -0.2665
10495W        W14093  10.885  13.673  11.955 -0.0786  0.1488  0.0486
10496W        W14094  11.984  10.061   5.641  0.2012 -0.5627  0.1386
10497W        W14095   3.789   1.657  14.131 -0.0858  0.2125 -0.2811
10498W        W14096  11.614   2.169   2.476 -0.1142  0.1072 -0.0569
10499W        W14097   1.460  11.482  11.876 -0.1599 -0.0152  0.0996
10500W        W14098  10.007   2.766  13.930 -0.3340  0.1854 -0.2714
10501W        W14099  10.827   7.540  11.243  0.1793 -0.2208 -0.2145
10502W        W14100  10.645   7.165  14.609 -0.0545  0.0173 -0.0627
10503W        W14101   1.895   7.736   3.729 -0.0012  0.0852 -0.1823
10504W        W14102   6.234   9.695   7.189  0.0833  0.1294  0.2712
10505W        W14103  11.372  11.791  14.014  0.0277 -0.1948  0.0961
10506W        W14104  13.186  11.449   3.125 -0.0739  0.0456  0.1114
10507W        W14105  14.241   6.989   4.991  0.1075 -0.0210 -0.2261
10508W        W14106   5.246   2.965  15.528  0.1011 -0.3166 -0.4117
10509W        W14107  14.359   4.349   9.143  0.0621  0.1365  0.1416
10510W        W14108   9.804   0.817   4.037  0.2308 -0.2012 -0.1029
10511W        W14109   8.532   6.317  12.364 -0.0225  0.1237 -0.0320
10512W        W14110   3.645   6.781  14.314 -0.1599 -0.1974 -0.1976
10513W        W14111   3.992   8.550   3.169  0.2146 -0.0060 -0.0614
10514W        W14112  14.176   4.567  14.531  0.0414  0.2139 -0.0925
10515W        W14113  10.347  14.472  16.122  0.1101 -0.0107 -0.1254
10516W        W14114   3.897  14.412   1.573  0.1178  0.2886 -0.2143
10517W        W14115   7.764   6.762   4.513  0.0384 -0.4523  0.3693
10518W        W14116  10.098   2.645   5.073  0.1374  0.1901 -0.2903
10519W        W14117   4.836   5.673   0.968 -0.0691  0.0254 -0.1438
10520W        W14118   6.823   5.620   7.153  0.2703 -0.1210  0.0558
10521W        W14119  10.643  12.017   5.267 -0.4096  0.1849 -0.0376
10522W        W14120   8.775   6.086   8.839  0.2587 -0.2315  0.0726
10523W        W14121   6.754  12.584   0.131 -0.0588 -0.1273 -0.0978
10524W        W14122   5.847   1.197   6.807 -0.1326  0.3176 -0.0178
10525W        W14123   2.802  12.572  14.196 -0.0239  0.0423 -0.0572
10526W        W14124  13.160  13.535   9.272  0.1653  0.0212 -0.3576
10527W        W14125  15.467   7.739  11.068  0.0033 -0.0371  0.0999
10528W        W14126   4.948  12.063  11.899  0.0384  0.2333  0.1354
10529W        W14127   6.349   3.128  14.901 -0.0947 -0.3744  0.0850
10530W        W14128   5.107  14.785   1.477  0.2647 -0.0975 -0.0863
10531W        W14129  11.428  10.653   1.250  0.0823 -0.0714  0.0831
10532W        W14130  12.931   8.833   2.350  0.1255 -0.0426  0.3319
10533W        W14131   7.815   3.733  11.791  0.0278  0.0557 -0.1538
10534W        W14132  16.393   8.093   0.137  0.1188 -0.1750 -0.4691
10535W        W14133  13.442  12.326   5.957  0.1938 -0.0459 -0.0009
10536W        W14134   9.027  11.796  15.111  0.0771  0.0094 -0.2299
10537W        W14135   1.019  15.370   3.160  0.0705  0.3342 -0.1174
10538W        W14136   8.996   0.330  15.358  0.1186  0.1674 -0.0275
10539W        W14137   7.419  14.233  12.226 -0.1278 -0.1947  0.0587
10540W        W14138  10.033   6.668   4.205 -0.1083 -0.0383 -0.3183
10541W        W14139   4.603   7.079   7.986 -0.1864 -0.0067 -0.1877
10542W        W14140   4.951   2.346   9.933 -0.2117  0.1515  0.2680
10543W        W14141  14.779   3.049  10.156  0.2273 -0.0986  0.5949
10544W        W14142   7.994   5.902  16.083 -0.0042 -0.1057  0.0325
10545W        W14143   2.980   9.669  10.693 -0.0343 -0.2506  0.1440
10546W        W14144   0.429   2.768  14.198 -0.0989  0.1573 -0.0380
10547W        W14145  12.244  15.642  12.034  0.1715 -0.0474 -0.3578
10548W        W14146   2.272   9.722   8.697 -0.2165  0.0590  0.0840
10549W        W14147   6.389  10.032  11.562 -0.2182 -0.0699 -0.1570
10550W        W14148   0.741  12.224   9.844 -0.0654 -0.1571 -0.1594
10551W        W14149  15.052   6.673  14.322 -0.3247  0.1521  0.0079
10552W        W14150   0.454   0.001   1.218 -0.1415  0.2152 -0.0503
10553W        W14151   9.729   8.870  11.058 -0.1041  0.0517 -0.2128
10554W        W14152  10.275   6.442   1.854 -0.1502  0.2198 -0.0887
10555W        W14153  11.342  11.958  14.514  0.2657 -0.2434 -0.2968
10556W        W14154  16.056  11.982   9.999 -0.2519 -0.0099 -0.1765
10557W        W14155   7.028  11.249   5.704  0.3343  0.1201  0.0449
10558W        W14156  14.425   6.677   6.102 -0.0504  0.1735 -0.3760
10559W        W14157  14.792  11.645   2.579 -0.2069  0.1533 -0.0481
10560W        W14158   3.020  15.601   3.974 -0.0914 -0.1297  0.0448
10561W        W14159   5.918   4.523  13.079  0.0985  0.1507 -0.2829
10562W        W14160  14.113   2.205  15.288  0.0986 -0.2305 -0.0342
10563W        W14161   5.881   0.094   6.117 -0.2873 -0.0338 -0.0257
10564W        W14162   0.021   0.071   0.327 -0.4178  0.2005  0.1802
10565W        W14163   8.594  14.081   7.950  0.1262  0.1863  0.2302
10566W        W14164   5.727   5.851   2.600 -0.1026  0.0676 -0.2235
10567W        W14165   6.776   7.399  13.137  0.0770  0.0658 -0.2235
10568W        W14166  10.399   2.626   6.037  0.2430 -0.0931 -0.2638
10569W        W14167   6.476   9.328  12.731 -0.1741 -0.1606  0.0563
10570W        W14168   7.316   3.042   9.847  0.2200 -0.1638 -0.1803
10571W        W14169   0.248   1.706   2.977  0.0122  0.2473  0.1201
10572W        W14170  15.054  14.505   2.261 -0.1207  0.1115  0.0452
10573W        W14171   3.141   7.942   0.590  0.0324  0.1562  0.0842
10574W        W14172  14.052   4.900   0.134  0.1934 -0.1128 -0.2046
10575W        W14173   5.124   7.914   6.848  0.3784  0.2416 -0.3459
10576W        W14174   3.123   1.329   9.717  0.1999 -0.1264  0.0904
10577W        W14175   2.589  15.619  12.703 -0.0169  0.0307 -0.1205
10578W        W14176   8.613   6.158   2.847 -0.1086  0.0114  0.1645
10579W        W14177   1.966   6.655   6.476 -0.0494 -0.3070  0.1791
10580W        W14178   0.697   9.442   6.360 -0.0939  0.1000  0.1341
10581W        W14179   2.777  13.040  14.755  0.0089  0.3093 -0.2098
10582W        W14180  12.743   9.333   0.520  0.1995  0.1711  0.2913
10583W        W14181   9.729   0.854   9.372  0.0495  0.2968 -0.2674
10584W        W14182  11.696   6.482  10.061  0.0955 -0.2728  0.5275
10585W        W14183   7.109   8.288  11.132  0.0696 -0.0591 -0.0557
10586W        W14184  13.769   0.711   4.819  0.0976  0.1733 -0.0343
10587W        W14185   4.736   3.355  14.390  0.0011  0.0505  0.2493
10588W        W14186   0.176   2.887   9.634 -0.0951  0.0205 -0.1243
10589W        W14187  13.438  10.392   7.815  0.0638  0.2996 -0.1195
10590W        W14188   7.736  14.549   6.973 -0.0423 -0.1034 -0.0118
10591W        W14189  10.411   4.434   5.757 -0.0391 -0.1004  0.0294
10592W        W14190   9.718   8.738  13.057  0.3395 -0.2687  0.5557
10593W        W14191  10.864   0.440   1.483 -0.0986  0.1812  0.2903
10594W        W14192   7.541   7.618   0.507 -0.0835  0.1277  0.2409
10595W        W14193   8.317   4.251  13.405  0.0926 -0.0436  0.0909
10596W        W14194  11.351   2.118  14.658  0.1958  0.0938  0.1525
10597W        W14195  13.713   8.566  13.752  0.2314 -0.1176  0.3565
10598W        W14196   4.448   0.588  14.499  0.0520 -0.0976 -0.1058
10599W        W14197   5.859  14.895  15.724  0.1078  0.0971  0.0751
10600W        W14198   7.151  13.318   4.985  0.1220  0.2053 -0.0198
10601W        W14199   4.642  13.690  12.487  0.0577 -0.3998  0.3432
10602W        W14200  12.673  11.643   0.566  0.0184  0.1521 -0.1074
10603W        W14201   9.111  10.109   1.710 -0.2211  0.0008 -0.0903
10604W        W14202  12.127   2.800   2.154  0.2550  0.2713  0.1092
10605W        W14203   5.969   4.022   3.085  0.0876 -0.0877 -0.0433
10606W        W14204   6.497   9.954  10.273 -0.0247 -0.3249 -0.1048
10607W        W14205   8.299   0.691   5.621  0.2380 -0.0089 -0.1009
10608W        W14206   2.917   5.625   4.213  0.0507 -0.2378 -0.0561
10609W        W14207  14.073   4.458  10.934  0.0129 -0.3282  0.1598
10610W        W14208  11.325   0.453   9.571 -0.1891  0.0647 -0.1994
10611W        W14209   1.987  11.077  10.154  0.2351  0.1484  0.0368
10612W        W14210   6.758  15.957   8.879 -0.0087  0.0106 -0.2114
10613W        W14211   0.796  13.560   9.567 -0.0993 -0.1054 -0.2773
10614W        W14212   5.175   6.845   7.014 -0.0269 -0.1238 -0.0690
10615W        W14213  12.184  10.241   8.319  0.1386  0.2911 -0.4129
10616W        W14214   7.296   2.415  11.274 -0.1028  0.1720  0.1376
10617W        W14215  11.599   5.376   4.672 -0.1999 -0.1360  0.2913
10618W        W14216  13.030   4.630   2.426 -0.1525 -0.0060 -0.2978
10619W        W14217  11.126   1.232   7.722 -0.1022 -0.1457  0.0961
10620W        W14218   8.396  14.462   9.692 -0.0964 -0.0099  0.1309
10621W        W14219   3.839  11.463  11.866  0.2720  0.0269 -0.4117
10622W        W14220   3.949  14.637   2.080 -0.0902  0.5269  0.0311
10623W        W14221   3.260  15.622   1.166 -0.0438 -0.2696  0.0550
10624W        W14222   8.636   6.159  16.133 -0.0509 -0.1315 -0.1854
10625W        W14223   9.977   4.297  13.004  0.0126  0.2872 -0.2357
10626W        W14224   7.331   3.577  12.547 -0.1174 -0.1104  0.2146
10627W        W14225   9.413  10.719  13.526  0.2489  0.2446 -0.0299
10628W        W14226  11.532   6.355  15.273  0.3336  0.2198  0.0980
10629W        W14227   0.890   2.555  14.105 -0.1486 -0.0021 -0.2586
10630W        W14228   1.515  11.165  12.543 -0.0689 -0.0338 -0.0044
10631W        W14229   0.355   4.822   7.672  0.1087 -0.1326 -0.2369
10632W        W14230   9.975  15.199  13.420 -0.0239  0.0783  0.0831
10633W        W14231  15.012   5.941  12.417 -0.0333 -0.4019 -0.0773
10634W        W14232  10.989   4.991  14.164 -0.0008 -0.0356  0.0618
10635W        W14233   0.713   6.481   2.227  0.0917 -0.0446 -0.1479
10636W        W14234  13.059   8.205  15.523  0.0472 -0.0110 -0.3830
10637W        W14235   9.788  15.196   1.427  0.2422  0.1507 -0.0288
10638W        W14236   6.913  15.033   5.580 -0.1226  0.0576  0.1652
10639W        W14237   7.996   4.769   7.571 -0.2552 -0.1017  0.2324
10640W        W14238   5.958   9.589  12.777 -0.0022  0.3209 -0.0611
10641W        W14239  11.671   8.026  12.915 -0.1059 -0.2002  0.1178
10642W        W14240   4.598   0.894  14.146  0.1130  0.0234 -0.2277
10643W        W14241   6.423   0.137  13.760  0.1989  0.0616  0.0710
10644W        W14242   1.311   2.432   8.324 -0.2160 -0.1084 -0.3413
10645W        W14243   4.849  10.916   6.870 -0.0907 -0.1339  0.1584
10646W        W14244  15.052  12.594   7.469  0.1222  0.1301  0.0934
10647W        W14245  11.993  15.690   8.278  0.1260 -0.0203  0.3246
10648W        W14246   8.936  15.246  13.457 -0.0275 -0.1877 -0.3226
10649W        W14247   5.221   0.156   5.506  0.1493  0.0377 -0.0774
10650W        W14248  13.781   5.180  13.484 -0.1428 -0.0147 -0.1724
10651W        W14249   3.457   5.679   9.029  0.3609 -0.0737  0.2158
10652W        W14250  11.832  12.535   8.559  0.0338 -0.2831  0.1163
10653W        W14251  12.001   9.050  12.745  0.1488 -0.1642 -0.1518
10654W        W14252   2.950   0.090   2.509  0.1752 -0.0572 -0.1169
10655W        W14253  11.480   3.095  16.214  0.0833  0.0491 -0.2187
10656W        W14254   9.701   0.266   0.227 -0.1434 -0.0533  0.2086
10657W        W14255   6.218   7.384  10.777 -0.2171  0.2106  0.2637
10658W        W14256  11.252   9.204  15.584  0.0818 -0.0149 -0.3493
10659W        W14257  10.763  14.287   3.302  0.0073  0.0247 -0.0106
10660W        W14258   0.166   2.256   0.054 -0.1123 -0.1030 -0.0098
10661W        W14259   1.217  11.924  15.315 -0.3821 -0.1094 -0.0994
10662W        W14260   9.409   9.870  13.398  0.0002 -0.0766  0.1257
10663W        W14261   1.873   8.339   3.549  0.4900 -0.1576  0.3391
10664W        W14262   3.457  14.043   5.949 -0.0067  0.0165 -0.1635
10665W        W14263   9.058  12.922  13.217  0.2123  0.1605 -0.1241
10666W        W14264   2.324  10.207   8.895  0.0720 -0.2823  0.2377
10667W        W14265   9.004   7.065   4.333 -0.0654  0.1269  0.4239
10668W        W14266   3.695   7.553   7.807 -0.3706  0.0012 -0.0419
10669W        W14267   0.568   3.525   6.870  0.0215 -0.0886  0.1570
10670W        W14268   1.797  15.846   2.608 -0.1169 -0.2112 -0.1264
10671W        W14269   0.625  15.907  13.885  0.0673 -0.2553  0.0681
10672W        W14270  13.897  13.917   5.889  0.2310 -0.3261 -0.3794
10673W        W14271  11.505  16.337  12.915 -0.2142 -0.3293  0.0445
10674W        W14272   2.103   2.521  14.363  0.2308  0.0555 -0.0652
10675W        W14273   2.573  11.844  13.504  0.1348  0.1258  0.2221
10676W        W14274   0.221  10.763   2.246 -0.1509  0.0713  0.3001
10677W        W14275   2.468   2.332  15.918 -0.0893 -0.0470 -0.0833
10678W        W14276  15.001   9.126  13.775  0.0632 -0.3300 -0.1069
10679W        W14277  13.907  10.638  11.397 -0.0291 -0.0654 -0.3568
10680W        W14278   1.052  13.415  10.363 -0.3019  0.0702  0.0830
10681W        W14279  15.533  10.782   3.291  0.0948  0.0364  0.0527
10682W        W14280  12.917  13.557   8.804  0.2316  0.0136 -0.1196
10683W        W14281   1.919  14.322  16.380  0.0637 -0.1190 -0.1345
10684W        W14282   2.947   4.658   8.393  0.0534 -0.0602  0.3064
10685W        W14283   1.962  12.530   6.101 -0.1624 -0.0103 -0.4142
10686W        W14284  10.146  13.907   1.571  0.1246 -0.0510  0.4853
10687W        W14285  14.675  10.102   1.651  0.2711 -0.0832  0.1445
10688W        W14286   6.500  15.848   8.458 -0.0602  0.0699  0.2314
10689W        W14287  10.338   2.056  14.725 -0.0447 -0.1297  0.2312
10690W        W14288  13.192   8.534   0.365  0.0059  0.0185  0.1639
10691W        W14289  10.659   5.652   5.807  0.0161 -0.1041  0.1043
10692W        W14290   0.766   2.170   2.836 -0.0084 -0.2687 -0.1314
10693W        W14291  14.862  13.751   8.706 -0.1751  0.0197 -0.0837
10694W        W14292   3.758   5.662  14.497  0.0733  0.0687 -0.0934
10695W        W14293   9.120   1.691  11.186 -0.2255 -0.0657 -0.2243
10696W        W14294   7.225   9.473  11.919 -0.0539  0.0319 -0.0940
10697W        W14295  14.022   7.612   0.914 -0.2506 -0.2381 -0.0106
10698W        W14296   4.751   5.625   0.501  0.1027  0.1528  0.2438
10699W        W14297   4.172   0.209   3.931 -0.4068 -0.0899  0.0730
10700W        W14298  12.210  10.501   3.788  0.1943  0.2078 -0.2145
10701W        W14299   1.889  13.079  13.527  0.1288  0.1537  0.0294
10702W        W14300   8.888   6.890   8.808 -0.0016 -0.1000  0.1117
10703W        W14301  12.822  14.669   5.565  0.2511 -0.0473 -0.0983
10704W        W14302   7.956  15.549   0.569  0.0394 -0.2827  0.0417
10705W        W14303  12.532   0.030   5.286  0.1071  0.1044  0.0413
10706W        W14304   6.965  15.850   1.130 -0.0492  0.0953  0.0155
10707W        W14305   0.746   2.768   1.593 -0.2498  0.0287  0.1075
10708W        W14306   7.502   0.469  13.767  0.3194  0.4073  0.2271
10709W        W14307   4.045   0.714   9.042 -0.2747 -0.0222 -0.2351
10710W        W14308   0.670   1.778   7.271 -0.4100  0.0295 -0.0837
10711W        W14309   1.103  16.224  11.985  0.0464 -0.0371  0.0388
10712W        W14310   4.217   3.629   7.208 -0.1901 -0.2270  0.1197
10713W        W14311   6.492  14.685  14.144 -0.0455 -0.2712 -0.3008
10714W        W14312   0.437   6.687   3.939  0.0421  0.1070 -0.0471
10715W        W14313   8.066   5.597   7.934 -0.3580  0.0068 -0.5400
10716W        W14314  14.671   8.321  15.586 -0.1667  0.0262  0.3893
10717W        W14315   4.056   1.483  16.199 -0.2899  0.0855  0.2153
10718W        W14316  13.481   8.027  11.455  0.1681 -0.1084  0.2205
10719W        W14317   5.864   4.799   7.809 -0.1091  0.1160 -0.0093
10720W        W14318  13.155  14.240   1.571  0.2833 -0.1295  0.4690
10721W        W14319   5.096   6.653  12.125  0.2612  0.0602 -0.1792
10722W        W14320  14.053   3.490  12.979 -0.2430  0.4962  0.1114
10723W        W14321  11.323   8.657  11.138 -0.2033  0.1903 -0.1645
10724W        W14322  10.575   6.841   0.645 -0.1983 -0.3040 -0.2360
10725W        W14323  12.848  11.600   4.040  0.2013  0.0827  0.1964
10726W        W14324   0.029   5.882   3.265 -0.1560  0.2043  0.0959
10727W        W14325  10.207   9.663   1.102 -0.1023  0.0436 -0.0757
10728W        W14326   9.120  15.473   6.456 -0.3373 -0.0046 -0.0816
10729W        W14327   5.047  13.155   6.018 -0.1160  0.2200  0.0516
10730W        W14328  12.522   1.945   1.275  0.3060 -0.1878  0.1374
10731W        W14329   4.771   7.127  15.062 -0.0380  0.0574 -0.1097
10732W        W14330   2.238   7.487   5.451  0.0294  0.3884 -0.1458
10733W        W14331   2.151   2.228  11.828 -0.0157  0.1495  0.0071
10734W        W14332   9.770   1.729   6.465  0.1814 -0.0361 -0.1941
10735W        W14333   0.049   0.108  11.929  0.0622  0.0831 -0.3780
10736W        W14334   3.634   2.553   1.743 -0.0229  0.1680 -0.1638
10737W        W14335  14.252  11.779   9.678 -0.1129 -0.2469 -0.3805
10738W        W14336   8.857  13.276  14.770 -0.1210  0.0504  0.0481
10739W        W14337   6.226  11.892   1.739  0.1340  0.1339  0.0862
10740W        W14338  10.969   2.006   6.536  0.0260 -0.0308  0.0475
10741W        W14339  14.919  14.061  11.086  0.0453 -0.1053 -0.1302
10742W        W14340   3.016   2.878   4.777  0.2750  0.0471 -0.1483
10743W        W14341  15.553  13.399   4.268  0.2496 -0.3986 -0.0387
10744W        W14342   4.323  10.190  14.005  0.0409 -0.0548 -0.2433
10745W        W14343   4.887   5.397  13.412  0.1555  0.2608 -0.3107
10746W        W14344   5.187   7.534  12.115  0.1458  0.0447  0.3372
10747W        W14345   4.111   0.655   2.251  0.1303 -0.0314  0.2113
10748W        W14346  10.947  12.034   3.186  0.0232 -0.1135  0.1040
10749W        W14347   9.558   9.378  10.900  0.0965 -0.4050  0.1086
10750W        W14348  10.832   7.697   0.643 -0.3399  0.0944 -0.0183
10751W        W14349  14.332  14.555  11.541  0.1299 -0.0839 -0.0153
10752W        W14350  13.797  10.060   7.585  0.2215 -0.0123 -0.2765
10753W        W14351  10.160   4.934   9.058  0.1657 -0.1278  0.1294
10754W        W14352  12.105  14.072  15.605  0.0106  0.1404 -0.2231
10755W        W14353  15.577  10.571   4.757 -0.1042  0.2348 -0.1569
10756W        W14354  11.803   2.644   4.242  0.2221  0.1755 -0.0812
10757W        W14355   4.467   4.856  10.571 -0.0723  0.1450  0.1125
10758W        W14356   2.024  12.386   0.193 -0.0753 -0.2725  0.4243
10759W        W14357   1.966  14.227   7.498 -0.0310 -0.2352  0.0437
10760W        W14358   9.625   7.693  15.249 -0.1058 -0.5040 -0.0725
10761W        W14359   2.265   7.866  11.160  0.1029  0.3136 -0.2189
10762W        W14360   2.043   8.820   4.413 -0.3005  0.0821 -0.0896
10763W        W14361   7.858  12.043  15.625  0.1623  0.0987  0.0506
10764W        W14362   5.872   7.569  16.390  0.3431 -0.1590 -0.3784
10765W        W14363   9.242   7.906  14.368 -0.0442 -0.0565  0.0900
10766W        W14364  14.336   9.352   0.619  0.0952 -0.1691  0.1261
10767W        W14365   3.721   4.889  11.406  0.1342  0.3505  0.0020
10768W        W14366   0.243   5.544   7.749  0.1502 -0.0454  0.0406
10769W        W14367  14.055   4.571   8.065 -0.0681 -0.1065 -0.0430
10770W        W14368   3.322   3.021   5.224 -0.3112  0.2632 -0.0529
10771W        W14369   1.338  15.422  12.711 -0.1480  0.2434  0.1707
10772W        W14370  12.835   2.611  13.994 -0.0179 -0.0118 -0.1975
10773W        W14371   8.280   5.989   6.936 -0.2206  0.6351  0.0012
10774W        W14372   2.915   5.724   7.519 -0.2403 -0.3150  0.3456
10775W        W14373   6.140   6.352   9.050 -0.2253 -0.1577 -0.0517
10776W        W14374   6.490   5.901   1.597  0.0797 -0.1012  0.0486
10777W        W14375  11.470  15.015   0.970  0.0938  0.2023  0.4759
10778W        W14376   8.132   2.840   4.063 -0.1340 -0.2863  0.3610
10779W        W14377   9.324   5.562   9.776  0.2086 -0.0605 -0.0138
10780W        W14378  15.622  12.629  14.664 -0.2219 -0.0073  0.4409
10781W        W14379   2.075  16.177   1.782 -0.2382  0.0346 -0.3862
10782W        W14380  10.877   5.600  15.880 -0.1339  0.1063 -0.1821
10783W        W14381  15.968   9.780   7.701 -0.2770  0.0248  0.0141
10784W        W14382   9.995   4.711   0.096 -0.0450  0.0359  0.0672
10785W        W14383   2.406   9.847  10.350 -0.1279 -0.0660  0.2195
10786W        W14384  16.014  14.492   1.367 -0.0300  0.0136 -0.0426
10787W        W14385   7.562   6.710  11.436 -0.1115  0.0070  0.0381
10788W        W14386   5.548   4.614   4.451  0.0239 -0.1607  0.3154
10789W        W14387   5.851   0.040   8.505 -0.1147 -0.0613 -0.0867
10790W        W14388   1.597   3.561   5.527  0.1286 -0.0176  0.5282
10791W        W14389   1.416  15.874  10.009 -0.0246 -0.1350 -0.0833
10792W        W14390  10.016  14.602   8.610 -0.1663  0.1447  0.0001
10793W        W14391  14.861  11.267   0.071  0.1994  0.1224 -0.1149
10794W        W14392   1.386   6.533   1.950 -0.0138  0.0554 -0.0668
10795W        W14393  10.418   2.305  11.130  0.1448 -0.2149  0.1416
10796W        W14394  11.921   3.739   2.453 -0.3121  0.1954 -0.0485
10797W        W14395   1.992   3.431   1.357 -0.0044 -0.1926 -0.0886
10798W        W14396   7.852   6.295   4.329  0.0286  0.2295  0.0576
10799W        W14397   7.832   3.278  13.400 -0.0818  0.0951 -0.0930
10800W        W14398  15.962   4.609  14.625  0.0035 -0.3474  0.2232
10801W        W14399  13.504   3.878   4.860 -0.0355 -0.2265  0.0652
10802W        W14400   0.747  15.236   0.125 -0.1081 -0.1833 -0.0932
10803W        W14401   6.996   3.161   2.758  0.0745 -0.1876  0.0496
10804W        W14402  14.772   0.029   6.796 -0.4890 -0.2312  0.1914
10805W        W14403   1.285  15.129   5.385  0.0096 -0.1942 -0.0499
10806W        W14404  14.963   2.609   3.661  0.0201 -0.1088 -0.2257
10807W        W14405   9.582   6.354   6.892 -0.2363 -0.4129 -0.4977
10808W        W14406   3.603   9.817   3.737  0.0942 -0.2995  0.0072
10809W        W14407  15.645  11.906   4.496 -0.2273  0.1436 -0.1354
10810W        W14408  14.733   8.151   7.328  0.0081 -0.0008  0.0746
10811W        W14409   6.796  13.403   5.827  0.3737  0.0630  0.1517
10812W        W14410  12.386  11.774   4.358  0.0077  0.0930  0.0430
10813W        W14411   5.356   5.227   3.268 -0.3240 -0.1240 -0.1668
10814W        W14412   3.497   6.832   7.183  0.1691 -0.2359  0.0189
10815W        W14413   8.367   7.945   2.655  0.2582  0.0673  0.3712
10816W        W14414   2.954  11.936  12.588 -0.2419  0.3573 -0.0891
10817W        W14415   9.150   5.974  11.205 -0.4065 -0.4636  0.1644
10818W        W14416   6.978   2.091  14.909  0.0303 -0.1277 -0.0576
10819W        W14417   6.941   5.009  11.022 -0.1582 -0.0142  0.3153
10820W        W14418   0.600   0.258  13.343 -0.0159 -0.1065  0.0158
10821W        W14419   6.197   3.011   4.883 -0.3894 -0.1197  0.0146
10822W        W14420  14.376   3.592  15.596 -0.2540  0.1745 -0.0909
10823W        W14421   6.809  10.416   1.902 -0.1046  0.2429  0.0657
10824W        W14422   2.760   5.047  12.492  0.0656 -0.1993 -0.1206
10825W        W14423  15.499   1.396   2.307 -0.3228 -0.0680  0.1783
10826W        W14424   1.100   4.525   9.531 -0.0259 -0.1527 -0.1709
10827W        W14425   3.049   0.314  10.686  0.1081  0.0719  0.0751
10828W        W14426   4.426   7.602  11.996  0.0629  0.2259  0.1404
10829W        W14427   0.688   2.990  12.090 -0.2376  0.1461 -0.1380
10830W        W14428   4.241  11.131  12.713  0.2976 -0.2685  0.0687
10831W        W14429   3.360   2.443   8.203 -0.2920  0.3379 -0.1515
10832W        W14430  12.387   7.024   1.421 -0.0161 -0.0480  0.1558
10833W        W14431  15.491  12.306  16.047 -0.1441 -0.0721 -0.0601
10834W        W14432  13.212  15.867  10.513 -0.2006  0.1323  0.3070
10835W        W14433   5.345   0.954   4.455 -0.3744  0.1246 -0.0329
10836W        W14434  15.896   2.753  15.794 -0.0149  0.1756 -0.0071
10837W        W14435  10.653  15.083  11.127 -0.1666 -0.0205 -0.2291
10838W        W14436   1.383   7.285  15.163 -0.2249 -0.0103  0.1947
10839W        W14437   5.587   5.065  13.811  0.2649  0.3521  0.0875
10840W        W14438   8.921  11.256  10.705  0.1489  0.1188 -0.1282
10841W        W14439  13.282   6.035   0.767 -0.1839  0.2349  0.0588
10842W        W14440   5.561   9.961   0.808 -0.1259  0.0677 -0.0681
10843W        W14441   0.384  15.206   2.083  0.0506  0.2807 -0.1362
10844W        W14442   5.231   6.109   1.754 -0.0954  0.0258 -0.2028
10845W        W14443  10.777   6.341  15.474 -0.2934  0.1315  0.0764
10846W        W14444   1.268  10.846   0.159 -0.1435  0.2161  0.0372
10847W        W14445   9.192   0.495  14.426  0.1091  0.0421 -0.1119
10848W        W14446   5.413   6.213   8.601 -0.3187 -0.2070 -0.2047
10849W        W14447   1.059  13.011   5.237 -0.1408  0.2506  0.1457
10850W        W14448  11.920  13.324   9.275  0.0378  0.1213  0.0081
10851W        W14449   5.206   7.565   6.471 -0.1858 -0.1106 -0.1958
10852W        W14450   3.898   3.184   2.825 -0.1390  0.1819 -0.2875
10853W        W14451   6.696   1.419   5.781  0.2241  0.1197 -0.2363
10854W        W14452   8.658   5.032   1.063 -0.0074 -0.1651 -0.2112
10855W        W14453   2.483   1.062  13.320  0.1727 -0.2878  0.1675
10856W        W14454   7.691   9.753   8.307 -0.2235  0.1901  0.0833
10857W        W14455  16.101   6.201   4.283  0.0437 -0.0904  0.0544
10858W        W14456   4.356   5.367  16.094  0.0025  0.0621  0.1943
10859W        W14457   8.019  15.304   1.622 -0.2058 -0.0083  0.1678
10860W        W14458  16.051   6.696   2.193  0.1285  0.0698  0.0020
10861W        W14459  12.090   1.608   0.763 -0.1408  0.2653  0.1967
10862W        W14460   2.429   5.584  15.878  0.1685 -0.2782  0.2116
10863W        W14461  13.895  10.999   0.449 -0.2743 -0.2634 -0.0092
10864W        W14462   9.348  10.290   8.508  0.2560  0.3530 -0.3403
10865W        W14463   2.642   3.803   2.982 -0.1078 -0.0381  0.1203
10866W        W14464  15.143   1.697   2.409 -0.0171  0.0585 -0.4831
10867W        W14465   8.290   6.473   8.157 -0.3826  0.4579 -0.1795
10868W        W14466   2.945   6.958   9.999  0.1624  0.0608  0.2782
10869W        W14467   1.800  11.174  12.145  0.3804 -0.3064 -0.1175
10870W        W14468  16.169   8.847   1.460 -0.1137  0.2853 -0.1471
10871W        W14469   9.024   7.348   9.050  0.2761  0.3497 -0.0733
10872W        W14470  14.290  10.365   6.947 -0.0138  0.0413  0.0327
10873W        W14471   0.360  12.658  15.982 -0.1574  0.2620  0.0405
10874W        W14472   8.523   3.873   2.780 -0.0340  0.1404 -0.1487
10875W        W14473   0.553   2.113   7.855  0.1544 -0.1957  0.2129
10876W        W14474   2.019  13.502   0.854 -0.0117 -0.0480  0.0115
10877W        W14475   4.981   4.061   5.862  0.0212  0.0327 -0.1750
10878W        W14476  12.651  13.919  11.280 -0.2640  0.1426 -0.4099
10879W        W14477  10.474   3.230   7.699  0.0301  0.0234 -0.0130
10880W        W14478   3.276  11.660   5.416 -0.3073  0.0055  0.2854
10881W        W14479   3.029   3.431  13.113  0.1352 -0.3425 -0.1432
10882W        W14480   3.190   8.832   2.962  0.3359  0.3154 -0.2146
10883W        W14481   9.387   2.682   9.621 -0.0256  0.1792  0.0256
10884W        W14482  13.965   0.961  15.088 -0.0334 -0.2684  0.1384
10885W        W14483  14.286   4.617   7.208 -0.1059 -0.0893 -0.1993
10886W        W14484   1.365   5.525   6.886 -0.1369 -0.2181  0.2466
10887W        W14485  15.632  14.814  12.382  0.0379 -0.0768  0.0350
10888W        W14486  14.436  10.934   0.299  0.2035 -0.0957 -0.1346
10889W        W14487   0.682  15.007  12.645  0.2602  0.3453  0.0085
10890W        W14488   9.269   9.128   8.863 -0.2022 -0.3609  0.1346
10891W        W14489  11.997  13.131   2.223  0.3171  0.1373  0.1937
10892W        W14490   2.899  10.501   0.285  0.1075 -0.0832  0.0916
10893W        W14491   4.977  15.978   1.127 -0.0012  0.1529 -0.2043
10894W        W14492  10.416   2.148   1.319 -0.3364 -0.1255  0.0319
10895W        W14493   1.495   6.908   5.452 -0.1711 -0.0344  0.2135
10896W        W14494  11.553   4.199  16.338 -0.0653 -0.2705  0.4667
10897W        W14495  10.754   6.583   7.787  0.0227 -0.0999 -0.1117
10898W        W14496   0.530   2.141  10.371 -0.0875 -0.3116 -0.2414
10899W        W14497  10.580  14.347  14.481 -0.2401  0.1782 -0.2547
10900W        W14498   3.575   3.649  10.636 -0.1762 -0.0007 -0.1952
10901W        W14499   7.834  14.088   8.666  0.2966  0.1250  0.0946
10902W        W14500  10.592  11.059   4.831  0.0324 -0.0078  0.3293
10903W        W14501   0.228   7.654   9.440 -0.1875 -0.1156  0.2958
10904W        W14502  13.165  10.592  15.432  0.1085  0.0732  0.0918
10905W        W14503   9.000   9.571   8.989 -0.1513 -0.2382 -0.0278
10906W        W14504   0.799   3.681   1.413  0.0222  0.1593  0.2149
10907W        W14505   2.219   9.610   1.955 -0.0829  0.2094  0.1535
10908W        W14506  12.288  12.489  13.747 -0.2972 -0.1067 -0.5447
10909W        W14507  11.581  14.032   2.084 -0.3667  0.3603  0.2061
10910W        W14508  15.848   4.528  11.511 -0.0464  0.1772  0.2371
10911W        W14509   4.228  12.350   2.528  0.1801  0.2536 -0.2433
10912W        W14510   9.821  11.351   3.035  0.1125  0.0138 -0.0879
10913W        W14511  13.884  10.709  15.081 -0.1907 -0.0359 -0.1784
10914W        W14512   5.960   0.339   9.943 -0.2727 -0.1007 -0.0319
10915W        W14513  10.698  11.397   6.696 -0.1550  0.3186  0.0146
10916W        W14514   2.593  10.488  13.394  0.1227 -0.4727  0.2430
10917W        W14515   9.466   8.243  13.869 -0.0480  0.1183  0.1252
10918W        W14516   8.238   2.431   6.660 -0.1368 -0.1419 -0.1175
10919W        W14517  15.586   3.079  11.249 -0.0900  0.0620 -0.1153
10920W        W14518  10.299   2.377  14.215  0.1659  0.0143 -0.1041
10921W        W14519   0.611   7.245   7.390  0.2775  0.1381 -0.2032
10922W        W14520   8.399   1.975   3.928 -0.0843 -0.1351  0.2677
10923W        W14521  15.012  14.902  12.694 -0.2519  0.0299 -0.0861
10924W        W14522   2.882   4.605   6.863  0.1148 -0.0560 -0.2684
10925W        W14523   4.163  11.332   1.666  0.1125 -0.1170  0.0486
10926W        W14524   6.691   7.893   2.505  0.0909  0.0799 -0.0478
10927W        W14525  14.277  13.315  16.204  0.2563  0.3922 -0.0969
10928W        W14526   2.916  16.312  11.038  0.0610  0.1538  0.1722
10929W        W14527   4.614  13.013   0.846  0.2412 -0.0693 -0.1121
10930W        W14528   3.368  12.817   4.228  0.2204  0.0721 -0.1978
10931W        W14529   2.083   5.089  13.320  0.0368 -0.0772  0.0270
10932W        W14530   1.463   1.846   5.281  0.3412  0.2552  0.1895
10933W        W14531   1.457   7.736  13.937 -0.1471 -0.0021 -0.1774
10934W        W14532   7.474   5.291   6.930  0.0376 -0.0773  0.1753
10935W        W14533  12.685   8.373   0.255  0.0747  0.3976 -0.0187
10936W        W14534   7.581   7.184  15.044 -0.1340  0.0418  0.0453
10937W        W14535   7.784  14.091  15.687 -0.0680  0.1124 -0.0386
10938W        W14536  14.205  14.340   0.033  0.1936  0.2137 -0.0380
10939W        W14537   6.727   1.293  14.684 -0.0716 -0.3402  0.3356
10940W        W14538   4.447   8.060  15.459 -0.1259  0.0440  0.0450
10941W        W14539   3.983   9.426   0.841  0.0019 -0.1643  0.0119
10942W        W14540  13.881  13.672   5.113  0.1352 -0.1567 -0.0880
10943W        W14541   7.334  15.028   5.349  0.2267  0.0375  0.0813
10944W        W14542   4.850  14.406   4.027  0.2420 -0.0082 -0.0792
10945W        W14543   4.841  15.835  12.802  0.0719  0.0094 -0.3266
10946W        W14544  13.391   7.783  11.922 -0.0717  0.1762  0.1306
10947W        W14545  12.997   7.234   6.365 -0.2843  0.1760  0.2613
10948W        W14546   0.997  15.729  11.802 -0.1059  0.0734  0.2058
10949W        W14547   5.538   1.033  10.912  0.2140  0.2145 -0.2866
10950W        W14548   4.578   5.822   6.276  0.1541 -0.1002 -0.0114
10951W        W14549   7.413   2.853   6.758 -0.2630 -0.1733 -0.0875
10952W        W14550   5.838  11.535   7.757  0.2026  0.4795 -0.3167
10953W        W14551   0.067  11.715   4.349 -0.0525 -0.1293  0.0148
10954W        W14552  11.555  10.193   4.841  0.1485 -0.0925  0.0528
10955W        W14553  13.001   0.995   5.646  0.0942  0.0131  0.0670
10956W        W14554  10.021   2.620   5.601  0.0033 -0.0699 -0.2875
10957W        W14555   8.362   2.112  15.645 -0.0948 -0.1108  0.0600
10958W        W14556  11.863   1.894   1.109 -0.0182 -0.3504 -0.3582
10959W        W14557   9.603  10.423   7.676  0.0955 -0.0379 -0.1390
10960W        W14558  12.257  12.309  15.211  0.2503 -0.2029 -0.0446
10961W        W14559   6.376  15.629   8.937 -0.2326  0.1960 -0.0189
10962W        W14560  11.924  13.098   8.492 -0.0045 -0.0994  0.0562
10963W        W14561  12.056   5.078   5.957 -0.1915 -0.2513 -0.1075
10964W        W14562  16.078   1.893  12.953  0.2120 -0.3677 -0.1196
10965W        W14563  14.126  13.186  15.664 -0.0911  0.2456  0.1932
10966W        W14564  16.017   4.043  12.087  0.2743 -0.0297 -0.3098
10967W        W14565  10.144  13.571  13.635  0.1437 -0.1455 -0.1589
10968W        W14566   2.432  11.052   8.847 -0.1626  0.0923 -0.1892
10969W        W14567   4.521  10.679  15.634  0.0300 -0.1564  0.1742
10970W        W14568   6.008   0.048   0.458 -0.1645  0.0016 -0.1026
10971W        W14569  12.531   8.438   6.323 -0.3376  0.1098 -0.0625
10972W        W14570   2.217   4.902   0.409  0.0002 -0.0047 -0.0055
10973W        W14571   6.002   0.201  12.642  0.4992  0.0598 -0.3344
10974W        W14572   4.728  13.258   6.900 -0.1708 -0.0777  0.3322
10975W        W14573   0.542   5.862   7.999  0.4738  0.3066  0.2966
10976W        W14574   9.112  13.891  11.339 -0.1368  0.2348  0.2683
10977W        W14575   3.364   8.873   1.526  0.0000 -0.1665 -0.0128
10978W        W14576   8.829  10.295   6.178  0.0030  0.1877  0.1839
10979W        W14577   8.042  12.275   7.852  0.2217  0.0339  0.2003
10980W        W14578   7.052  13.797  11.063  0.3609  0.1981 -0.0491
10981W        W14579   8.025   6.804   7.880  0.0069  0.0654 -0.1977
10982W        W14580   3.267  12.950   0.463  0.1121  0.0418 -0.2360
10983W        W14581   5.948  10.640  14.586 -0.0982 -0.1011  0.1773
10984W        W14582   1.804  10.799   0.823  0.0837 -0.0320 -0.3124
10985W        W14583  13.050   2.618   6.134  0.1434 -0.2852 -0.0469
10986W        W14584   0.543   1.021  11.316 -0.0801 -0.0246  0.1478
10987W        W14585   9.202  13.193   6.345  0.0448 -0.1869  0.2423
10988W        W14586   0.189   3.610  13.696 -0.0415 -0.2159  0.2111
10989W        W14587   1.115   9.746   5.455  0.1262 -0.0362  0.1400
10990W        W14588   1.069   3.988   2.779  0.3162 -0.0944 -0.3652
10991W        W14589   4.083  11.854   5.278  0.2829 -0.2397 -0.0667
10992W        W14590  13.202   3.726   2.020  0.0441  0.2597  0.2754
10993W        W14591  11.383   2.869   0.243  0.0517 -0.0078 -0.1487
10994W        W14592   6.191   0.239   3.830 -0.1361 -0.2465  0.1483
10995W        W14593   3.868  11.227   0.258  0.2640 -0.2658 -0.2428
10996W        W14594   5.561   7.881   7.115  0.1319 -0.1611  0.2371
10997W        W14595  11.245   8.787  15.279  0.3291  0.3356  0.0322
10998W        W14596   4.727   9.918  10.079  0.4515 -0.0706  0.0702
10999W        W14597  13.222   9.248   6.361 -0.0414  0.1442 -0.1787
11000W        W14598   8.669   4.268   7.526  0.0693  0.0054 -0.2619
11001W        W14599   1.126   0.734  15.620 -0.1606  0.2439  0.0159
11002W        W14600  14.275   5.814   7.182 -0.1046 -0.0309 -0.0398
11003W        W14601   7.503  14.562   5.171 -0.1081  0.2011  0.1079
11004W        W14602  15.473   3.664  13.527  0.1175  0.2613  0.1116
11005W        W14603   9.079   6.378   1.641 -0.0954 -0.1256 -0.0430
11006W        W14604  15.792   3.585   1.710 -0.1873 -0.0823  0.1097
11007W        W14605  12.623   8.109  16.207  0.1122  0.1046  0.1594
11008W        W14606   3.604   4.008   6.279 -0.1894 -0.1708 -0.0980
11009W        W14607   5.701   1.471   9.456  0.1463  0.1788  0.0346
11010W        W14608  16.314   0.234   6.412  0.0409 -0.1054  0.1433
11011W        W14609  14.508   8.680   2.015  0.0795 -0.2577 -0.2075
11012W        W14610   1.422  14.172  15.096  0.1701  0.2432  0.2595
11013W        W14611  12.175   4.684   8.137 -0.4347 -0.1068  0.0850
11014W        W14612   0.209   1.178   1.537 -0.0800 -0.1614  0.1207
11015W        W14613   4.097  14.019   2.996 -0.1052 -0.1474 -0.1859
11016W        W14614   7.573  13.290   9.784  0.1753  0.0898  0.2208
11017W        W14615   4.926   1.433   2.034 -0.0654 -0.5223 -0.0210
11018W        W14616   8.026   8.163   8.948  0.2538  0.1098  0.0180
11019W        W14617   7.990   8.620   4.560  0.1693 -0.0424 -0.0101
11020W        W14618   1.663   1.476   2.450  0.1684  0.0214  0.0401
11021W        W14619  13.292   9.178  10.303  0.0270 -0.1292  0.0145
11022W        W14620   1.716  12.574  16.094  0.0680 -0.2532 -0.1097
11023W        W14621   6.982  15.316  13.065 -0.0283  0.1149 -0.2057
11024W        W14622   4.549  12.644   0.472 -0.1196  0.2098 -0.1453
11025W        W14623   4.274   6.991  11.246  0.1386 -0.1639 -0.4021
11026W        W14624  11.788   3.941  11.050  0.1123 -0.1576 -0.0002
11027W        W14625   2.961   3.711   4.460  0.0493  0.2092  0.0582
11028W        W14626  11.563   9.891   8.468 -0.1642  0.0888 -0.0966
11029W        W14627   4.729   0.410   5.543 -0.1136 -0.1307  0.1282
11030W        W14628   2.334   2.236   4.750 -0.0862  0.1488 -0.1214
11031W        W14629  12.282   7.189  13.301  0.1008 -0.1860 -0.2608
11032W        W14630  13.576   1.665  12.244 -0.0894  0.2339  0.3194
11033W        W14631   8.250   6.428   2.369  0.5373  0.0045 -0.1476
11034W        W14632  12.500   9.908   6.426  0.0843 -0.2814 -0.4013
11035W        W14633  12.378  13.388   2.024 -0.1402  0.0455 -0.1460
11036W        W14634   8.832  10.255   0.832 -0.2451 -0.2241 -0.2368
11037W        W14635  13.631   1.413   5.616  0.2196 -0.0934 -0.2006
11038W        W14636   8.202   1.768   9.708  0.0767  0.1774 -0.3253
11039W        W14637   2.169  12.431   9.853 -0.4255  0.2061 -0.3006
11040W        W14638   5.759  15.546   3.668 -0.3075  0.0723 -0.1082
11041W        W14639   3.659   9.128   7.261 -0.1088  0.0203 -0.0071
11042W        W14640  11.891  11.662  13.929 -0.1374  0.2353  0.3361
11043W        W14641   4.908   2.418  13.269 -0.1613  0.4697 -0.0834
11044W        W14642   1.054  10.217   5.295  0.0825 -0.1374 -0.4554
11045W        W14643   0.944   8.488   8.697 -0.1504  0.1149  0.3843
11046W        W14644   6.263   1.062  12.750  0.0488 -0.1437  0.0767
11047W        W14645  10.910   6.859   5.418 -0.0768 -0.1604 -0.0211
11048W        W14646  10.271  13.958   5.924 -0.0278  0.1283 -0.0852
11049W        W14647  11.837   4.846   1.066  0.3547 -0.0185 -0.1981
11050W        W14648   5.192   1.764   6.994  0.0394 -0.0257 -0.1203
11051W        W14649   8.375   2.392   0.573  0.2112 -0.1044 -0.1626
11052W        W14650   1.574  13.440  11.055  0.2310 -0.3175 -0.0111
11053W        W14651  13.582   9.589   7.321  0.0034 -0.1411 -0.0433
11054W        W14652   5.817   7.818   9.929 -0.0909 -0.2938 -0.0020
11055W        W14653   8.084  13.724  14.750  0.0291  0.3085  0.2362
11056W        W14654  11.103  13.390  10.517 -0.0928 -0.2149  0.0915
11057W        W14655   5.511   1.990  12.110 -0.2320 -0.3181  0.2841
11058W        W14656  14.480  16.044   1.448  0.0330 -0.0563 -0.0349
11059W        W14657   9.688   3.019   5.579  0.1269  0.1079 -0.1199
11060W        W14658   1.867   1.021   1.544  0.0952  0.1372 -0.2192
11061W        W14659   8.991   1.348   5.904 -0.0208 -0.2928  0.2106
11062W        W14660  14.849   1.470  15.140  0.1336 -0.0130 -0.3425
11063W        W14661  13.819   8.173  13.124  0.0010  0.1230 -0.0189
11064W        W14662  15.922   0.263   0.932  0.0521  0.3134 -0.1248
11065W        W14663   0.059  15.993   3.627  0.2327  0.0323 -0.0863
11066W        W14664  12.567  12.431  14.575 -0.0237 -0.1382  0.0126
11067W        W14665   3.862  15.177   3.333  0.0527  0.3228 -0.3748
11068W        W14666   5.176   4.208   4.272 -0.0271  0.3455  0.2357
11069W        W14667  12.690   3.039   4.195  0.1462 -0.1726 -0.2407
11070W        W14668  10.508   4.911  11.237  0.2308  0.0916 -0.0790
11071W        W14669  10.681   3.202  12.906 -0.0425  0.0096 -0.0815
11072W        W14670   2.420   5.185  16.244 -0.0097  0.0453  0.4914
11073W        W14671  10.240   3.809   6.465  0.0107  0.2387  0.0132
11074W        W14672   2.632  10.797   3.110  0.2595  0.0723 -0.0119
11075W        W14673  11.401  14.390  15.978 -0.0427 -0.1042  0.0660
11076W        W14674  10.471   6.777   2.826  0.2168 -0.1544 -0.0891
11077W        W14675   8.516   6.528   3.865 -0.2225 -0.3500 -0.0600
11078W        W14676   1.414   5.650  13.585 -0.2101 -0.0584 -0.0733
11079W        W14677  10.632   5.806   3.332  0.0590  0.2278  0.0292
11080W        W14678   7.707   1.888   9.646  0.3309 -0.1039  0.1258
11081W        W14679   2.537   7.086   0.788  0.1263  0.0116 -0.1747
11082W        W14680  14.404  11.490   2.835 -0.0345  0.0534 -0.0506
11083W        W14681   2.921   4.691   5.597  0.1504 -0.1578 -0.3025
11084W        W14682   9.937  14.604  10.971  0.0076 -0.1570 -0.1075
11085W        W14683   9.488  12.775   2.877  0.1456  0.1386  0.0036
11086W        W14684   5.771   2.896   6.436  0.0239  0.1515 -0.1233
11087W        W14685   4.170   1.155  14.025  0.0991  0.0725 -0.0088
11088W        W14686   6.211   7.797   4.002  0.3788 -0.0058 -0.0523
11089W        W14687  15.402   4.748   4.846 -0.2780  0.1548 -0.1508
11090W        W14688   1.974   9.670  10.421  0.0274  0.1474  0.4217
11091W        W14689   6.317   4.571  11.471  0.0360 -0.1326  0.1492
11092W        W14690  13.648   0.621  16.099 -0.0320 -0.1949 -0.3745
11093W        W14691   9.340  14.400   5.031 -0.1324 -0.2000 -0.1768
11094W        W14692  10.070   7.898  11.719 -0.0869  0.2293 -0.4065
11095W        W14693  12.931  12.470   5.196  0.0243 -0.1873  0.2022
11096W        W14694   4.672  12.737   8.741  0.2188 -0.1534  0.0902
11097W        W14695   1.819  14.931   8.043 -0.1201 -0.0458  0.1169
11098W        W14696  14.657  11.590  15.340 -0.0340  0.2217 -0.1254
11099W        W14697  10.167   4.835  12.999  0.2544 -0.0098 -0.3329
11100W        W14698   3.673  12.915   4.650  0.1206  0.0611  0.1207
11101W        W14699   4.952  14.939  16.185  0.1945  0.3082 -0.1411
11102W        W14700   1.118  14.986   4.803  0.2202 -0.0749 -0.0640
11103W        W14701   3.698  12.749  15.082  0.5846 -0.0988  0.1161
11104W        W14702   9.046   5.622   1.691 -0.1358  0.3176  0.1118
11105W        W14703  10.345   6.394   7.386 -0.1616  0.1771 -0.2399
11106W        W14704  16.302   5.113   8.402  0.1075  0.1186 -0.0347
11107W        W14705  12.653   7.057  14.909 -0.1152 -0.0501  0.1387
11108W        W14706   2.794   5.612  13.653  0.0632  0.0481 -0.0736
11109W        W14707   9.999  11.784   4.615  0.2232 -0.0200 -0.1693
11110W        W14708   1.368   6.364   5.332  0.1894 -0.1520  0.1074
11111W        W14709  10.342  12.520   3.494 -0.3106 -0.2859  0.2444
11112W        W14710   2.713  13.924  10.865  0.2419  0.0333 -0.0039
11113W        W14711   9.482   6.852  15.393 -0.2461 -0.2002 -0.0729
11114W        W14712  11.916   2.899   3.371  0.4066 -0.3119 -0.1991
11115W        W14713   4.126   6.829   7.828  0.1203 -0.1382 -0.1658
11116W        W14714  14.458   7.764   0.433  0.2571  0.0470 -0.0965
11117W        W14715   4.925   3.184  10.895  0.1515 -0.0064 -0.2819
11118W        W14716   8.394   6.696  12.100 -0.2060  0.0487 -0.1124
11119W        W14717   0.126  12.210   9.190 -0.1099 -0.0686 -0.1314
11120W        W14718  11.704   1.906   7.556 -0.2460 -0.0598 -0.2796
11121W        W14719  13.335   8.389  15.928  0.0081 -0.0201  0.2667
11122W        W14720  12.566   1.494   6.968  0.1889 -0.2167 -0.3576
11123W        W14721   5.684   4.914  12.187 -0.2255 -0.1923  0.2638
11124W        W14722  13.951  13.400   2.201  0.3068 -0.0769 -0.0122
11125W        W14723  15.144  15.522   3.455 -0.0933 -0.2667 -0.0438
11126W        W14724   9.370  13.225   5.095 -0.0237  0.0094 -0.1728
11127W        W14725  13.837   1.969  14.269 -0.0321 -0.0562 -0.3141
11128W        W14726  16.348  15.123  15.540 -0.0852  0.1522  0.2156
11129W        W14727   0.602  13.521  15.195 -0.3470 -0.1368  0.2865
11130W        W14728   4.286   8.006   0.139  0.0976  0.2674  0.0347
11131W        W14729   5.794  13.487   6.272 -0.1160  0.1870  0.0408
11132W        W14730   1.406   1.456   0.814 -0.0997 -0.0906 -0.1802
11133W        W14731   2.678  16.190  10.160 -0.2545 -0.1232 -0.0405
11134W        W14732  12.273   1.509   6.084 -0.0611 -0.1605  0.0753
11135W        W14733   0.864  15.822  10.502 -0.0416  0.7247 -0.2911
11136W        W14734  13.609  15.686  15.181 -0.1737 -0.0984  0.0644
11137W        W14735   0.662   8.554   7.022  0.4608 -0.0528 -0.2151
11138W        W14736  13.054  15.421  10.354 -0.3189 -0.1081  0.1426
11139W        W14737  11.629  13.321   7.608 -0.2832  0.1338 -0.1177
11140W        W14738   4.264  15.780   3.348 -0.2161 -0.0943 -0.0504
11141W        W14739  11.094   1.723  14.402 -0.1652 -0.0037  0.2834
11142W        W14740   6.409  10.153   4.154  0.2743 -0.0179  0.2807
11143W        W14741  14.250  12.478   7.437 -0.0353  0.0507 -0.1131
11144W        W14742   8.090  13.269   3.883  0.0827  0.3704 -0.1250
11145W        W14743   6.095  12.876  16.114 -0.0604  0.3788  0.0746
11146W        W14744   0.618  16.103  11.878  0.1751 -0.0793 -0.3510
11147W        W14745   0.256   0.337  13.698 -0.2985 -0.2075  0.0960
11148W        W14746  11.857   0.247   8.181 -0.0950 -0.0554  0.0214
11149W        W14747  10.301  14.584   4.599 -0.0985  0.1947 -0.0817
11150W        W14748   9.096  11.411   8.422 -0.1621  0.0037 -0.1452
11151W        W14749  11.044  14.446   4.311  0.3433  0.0314 -0.0367
11152W        W14750   5.158   2.752   9.669  0.1622  0.0328 -0.4416
11153W        W14751   7.588   1.739   0.130  0.2127 -0.1910 -0.1597
11154W        W14752   7.022  11.249  16.195 -0.2524 -0.0715  0.2610
11155W        W14753  16.264   2.426   9.713 -0.0073  0.0927  0.0328
11156W        W14754  14.656  11.271   7.205 -0.1140 -0.0527 -0.1395
11157W        W14755  11.337   8.138   6.985 -0.0237  0.1815  0.1162
11158W        W14756   0.840  15.434   4.110  0.1090  0.0000 -0.0165
11159W        W14757   9.245   0.757   9.466  0.1601  0.1993 -0.0880
11160W        W14758  14.471   5.142   0.255  0.2540  0.1662 -0.0836
11161W        W14759  10.175   1.355  12.715  0.1599  0.3043  0.0592
11162W        W14760  11.202  10.937  16.206 -0.1555 -0.1541 -0.0672
11163W        W14761   7.596   5.231   3.263  0.2053 -0.1350 -0.1476
11164W        W14762   8.231   8.581   4.984  0.3901 -0.0822 -0.2331
11165W        W14763  13.735   3.411   2.837  0.0352 -0.1389  0.2445
11166W        W14764   9.086   6.213  15.809  0.0495  0.0515 -0.0346
11167W        W14765   3.733  12.211  10.935 -0.2220 -0.2032 -0.2296
11168W        W14766   5.116  12.883  15.806  0.2125  0.0244  0.1317
11169W        W14767   4.617   5.831  14.944 -0.2857 -0.0518 -0.2377
11170W        W14768   9.964   0.073   2.579 -0.1427  0.0812 -0.1986
11171W        W14769  11.898   6.173   4.511 -0.2490  0.2276  0.3200
11172W        W14770   3.594   8.319   1.784 -0.2049 -0.1367  0.0838
11173W        W14771  12.346   4.055  12.610  0.0956 -0.1544 -0.2871
11174W        W14772  15.159   2.283  13.870  0.0039  0.1612  0.1791
11175W        W14773  12.548   2.039  11.245 -0.1043 -0.1520 -0.0643
11176W        W14774   6.351  13.855   9.929  0.1957  0.0227  0.2181
11177W        W14775   2.325   2.021   1.521 -0.1144 -0.0128  0.1658
11178W        W14776  10.341   6.428   4.557  0.0540 -0.3246 -0.0487
11179W        W14777   0.191   9.466   5.014 -0.2715  0.1510 -0.1038
11180W        W14778   5.667  14.865   4.754  0.1861  0.3789 -0.1194
11181W        W14779   0.063  11.299   9.557  0.1688  0.3101 -0.2792
11182W        W14780   8.076   0.916   1.380 -0.1867  0.0425  0.1727
11183W        W14781   3.377  11.505   1.067  0.0192 -0.4375 -0.0562
11184W        W14782  15.163   6.780  16.135 -0.3033  0.0447  0.0931
11185W        W14783   9.562   6.277  12.166 -0.1779  0.1283 -0.3113
11186W        W14784  14.705  11.001   4.092 -0.1684  0.0230  0.0751
11187W        W14785  10.489   0.164   2.678 -0.2020 -0.0511  0.0579
11188W        W14786  13.591   4.140  15.467 -0.0295  0.0008  0.0076
11189W        W14787   3.662  15.301   7.667 -0.0194 -0.2376  0.0165
11190W        W14788   1.929   7.126  11.767 -0.2554 -0.0331  0.0904
11191W        W14789  13.391  12.239   3.570  0.1320  0.0436 -0.0754
11192W        W14790   9.371   7.172   8.694 -0.0375 -0.0738  0.0465
11193W        W14791   0.156   6.841  13.564 -0.0133  0.2335 -0.2431
11194W        W14792   9.585   3.302   2.170  0.0173 -0.0496  0.1375
11195W        W14793   8.906   5.452  14.275 -0.0095  0.1909  0.2929
11196W        W14794  14.980  15.477   6.652 -0.1160 -0.0594  0.1204
11197W        W14795  13.580  10.505   5.200 -0.1150  0.1297 -0.2118
11198W        W14796   3.995  13.821  14.748 -0.1692  0.0446 -0.3064
11199W        W14797   8.819   7.113  12.764 -0.2038  0.0930 -0.1080
11200W        W14798  11.682   8.844   8.126  0.0356 -0.0480  0.0183
11201W        W14799   9.402   2.859   1.102  0.0800  0.3600  0.0536
11202W        W14800  11.423   0.756  11.741  0.1342  0.2443  0.1063
11203W        W14801   9.514  12.767  15.468  0.1514 -0.0728  0.1694
11204W        W14802   1.546  11.210   9.825 -0.2040 -0.0826 -0.1700
11205W        W14803  15.020  15.456   7.641 -0.0742 -0.2257  0.0506
11206W        W14804   0.059   4.566   9.910  0.0258 -0.1215 -0.1583
11207W        W14805  12.153  13.298  13.375  0.0462  0.2442  0.0245
11208W        W14806   2.825  15.068  13.225  0.2249  0.0893  0.1069
11209W        W14807   7.851   2.856  15.932 -0.0250  0.1477 -0.3932
11210W        W14808   1.747   9.472   0.948  0.1298  0.2711 -0.1451
11211W        W14809  10.741  15.154   0.313 -0.0009  0.2582 -0.0584
11212W        W14810  15.245  11.563   2.693  0.1058  0.0649  0.1227
11213W        W14811   0.120   9.903   7.711  0.0840  0.1353  0.0084
11214W        W14812   9.625  12.760  13.636  0.1660  0.0511 -0.0453
11215W        W14813  10.243  13.074  13.698  0.1759  0.1580 -0.2556
11216W        W14814   9.411   9.816  10.114  0.3141  0.4571 -0.2139
11217W        W14815  12.639  10.147   0.751 -0.0350 -0.1252 -0.1023
11218W        W14816  12.712   8.141  14.374  0.0485  0.0053 -0.1278
11219W        W14817  12.703  10.198   3.614 -0.2512  0.2770 -0.0026
11220W        W14818   5.175  16.081  15.392  0.0499  0.1543  0.1481
11221W        W14819   1.492   2.913   8.512  0.0889 -0.1866  0.1813
11222W        W14820  11.716   4.761  12.980  0.1343  0.1022 -0.0996
11223W        W14821  14.213  10.743   2.343 -0.0877 -0.2050  0.1611
11224W        W14822   4.227  11.025   3.041  0.0014 -0.0573  0.1197
11225W        W14823  10.968  12.988  10.801  0.1653 -0.0265  0.2229
11226W        W14824   0.231   2.855  12.245  0.3457  0.0622 -0.1358
11227W        W14825  12.943  15.108   1.941  0.2325 -0.0482 -0.0236
11228W        W14826   3.470  10.436  14.194 -0.0492  0.1514 -0.1543
11229W        W14827   6.516  12.415   4.261 -0.0469 -0.0754 -0.0983
11230W        W14828   9.493   8.480   4.555  0.0545 -0.0127 -0.0818
11231W        W14829   2.162   9.498  11.504  0.2101 -0.1477 -0.2528
11232W        W14830   9.032  10.954   4.496 -0.1472  0.3149 -0.1564
11233W        W14831   5.880   8.227   4.367  0.1894  0.1138 -0.0536
11234W        W14832  15.032   7.713   7.099  0.0277  0.0600  0.0207
11235W        W14833   7.395   8.492  10.556  0.2796  0.0457 -0.4622
11236W        W14834  16.259   1.782   6.941  0.0619 -0.0366 -0.0660
11237W        W14835  15.372   4.702   5.327  0.0876  0.0684 -0.2650
11238W        W14836   2.514  13.899   2.033 -0.0236  0.0979 -0.3075
11239W        W14837   5.633  12.593  12.602  0.1590 -0.0418  0.0919
11240W        W14838   2.503  11.154   3.854 -0.1973 -0.2491  0.1088
11241W        W14839   9.009  11.413   6.925 -0.0369 -0.0163 -0.0252
11242W        W14840  10.670   5.383  10.214  0.2739 -0.0938  0.1565
11243W        W14841   2.569   4.931   1.796 -0.2936 -0.1754  0.0730
11244W        W14842   8.280   9.359  11.114  0.0642  0.0526 -0.1405
11245W        W14843   0.220   4.917  10.737  0.2317 -0.1015 -0.0084
11246W        W14844   7.988  13.711   6.662 -0.0762  0.0250 -0.2402
11247W        W14845  14.700   5.350  11.256  0.2395 -0.1580 -0.2471
11248W        W14846   3.573   3.732   8.738  0.1244 -0.0203 -0.1281
11249W        W14847   9.225   3.992   9.570 -0.1716  0.1095  0.3795
11250W        W14848  12.441  14.916   8.121 -0.2429 -0.2777 -0.5357
11251W        W14849  11.644  10.838  10.011  0.0363  0.2436 -0.1411
11252W        W14850  15.067  14.793   9.432 -0.0305  0.4251 -0.3779
11253W        W14851   9.875   3.867   3.854 -0.4674 -0.0021 -0.0523
11254W        W14852   6.824   3.233  13.402 -0.0687  0.0259  0.2519
11255W        W14853   3.729  11.243   9.123 -0.3257  0.3101 -0.0832
11256W        W14854   4.911   9.100  15.844 -0.3812  0.1278 -0.0778
11257W        W14855  12.532   4.598   2.862 -0.0662  0.1293  0.2642
11258W        W14856   2.243   5.556  10.504  0.0883  0.0501  0.1737
11259W        W14857   6.250   1.952  12.600  0.0175  0.1118  0.0425
11260W        W14858   6.016   2.902   7.259 -0.0323  0.1013  0.1096
11261W        W14859   9.782  14.824   7.819  0.0616  0.1741  0.0364
11262W        W14860   1.582  14.275   9.938 -0.0327  0.2272  0.0127
11263W        W14861  14.616   0.706   3.414 -0.0471 -0.0383 -0.0130
11264W        W14862  15.753   1.882   9.201  0.0972 -0.1101  0.2297
11265W        W14863   5.623   9.583  16.379 -0.2945 -0.0182  0.2145
11266W        W14864   0.156   0.790   4.686 -0.0874 -0.1654 -0.1312
11267W        W14865  13.807  15.714   8.342  0.0984  0.1749 -0.0309
11268W        W14866  11.143   8.434  12.262  0.0505 -0.3074 -0.1353
11269W        W14867  10.482   4.798   0.962  0.0586  0.1340 -0.0328
11270W        W14868   5.125  11.434   0.323 -0.0510  0.0826  0.2162
11271W        W14869   5.141   0.392   6.692 -0.0643 -0.2699 -0.1926
11272W        W14870   0.277   3.964  13.103  0.1712  0.0422  0.2818
11273W        W14871  12.385   9.825   9.835 -0.2001 -0.0104  0.0579
11274W        W14872   0.010   0.882   7.671 -0.1277 -0.2296 -0.2972
11275W        W14873   8.146   2.721   9.343  0.1180 -0.1385 -0.2617
11276W        W14874  13.807   7.365  13.125  0.0625 -0.2604  0.1068
11277W        W14875   3.669   7.909  12.010 -0.1687  0.0772 -0.1043
11278W        W14876   9.493  11.805  15.376 -0.1470  0.0378 -0.0864
11279W        W14877   9.862   9.273   0.655 -0.1713 -0.1020  0.2661
11280W        W14878   9.865  14.356   4.893 -0.1386  0.2614 -0.1796
11281W        W14879   4.272  13.683   3.429  0.0058 -0.1073  0.3252
11282W        W14880  11.325  14.285   3.946  0.1248  0.3378  0.0913
11283W        W14881  13.775  12.159   3.864  0.0112  0.1277 -0.2895
11284W        W14882   8.613   1.566  14.347 -0.1469  0.1834 -0.0811
11285W        W14883   7.463  15.280   2.614  0.1648 -0.3585  0.0108
11286W        W14884  15.350  10.208  15.773  0.0859 -0.2951  0.2469
11287W        W14885   6.858   8.636   8.443 -0.0906 -0.1288 -0.1368
11288W        W14886  11.088  13.823  10.218  0.1179 -0.1318  0.0541
11289W        W14887   3.148   5.258  12.898  0.1190 -0.2388 -0.2763
11290W        W14888  11.735  14.618   0.378 -0.4357  0.0779 -0.0585
11291W        W14889  11.220   0.549   3.552 -0.1824  0.1345 -0.2038
11292W        W14890  10.169   7.683   4.565 -0.1400  0.0351 -0.0747
11293W        W14891   4.256  10.166   1.667  0.2805  0.1047  0.2298
11294W        W14892   4.344  13.904  16.366 -0.0342 -0.2009  0.1445
11295W        W14893  11.081   9.150   6.485 -0.1552  0.2075 -0.0127
11296W        W14894   0.747   0.677   7.225 -0.1505 -0.1333 -0.2360
11297W        W14895   3.005   9.388   9.659 -0.0121  0.1180  0.2608
11298W        W14896   0.068   6.531  11.949  0.2719 -0.1859  0.0315
11299W        W14897   9.413   0.058  12.302 -0.1933 -0.3298  0.2774
11300W        W14898   6.677   5.392   5.014  0.1732 -0.2344 -0.0899
11301W        W14899   2.663   1.254   6.577  0.2002  0.0976  0.0705
11302W        W14900   8.456  14.469  16.134 -0.2785  0.1877  0.1459
11303W        W14901   0.543  10.210   4.415  0.0395 -0.0354  0.0194
11304W        W14902   3.476   1.055   1.916  0.1096  0.1222  0.1996
11305W        W14903   8.519  12.711  15.704 -0.1464 -0.0002  0.1579
11306W        W14904   4.889  11.011  10.614 -0.1641  0.1961 -0.1933
11307W        W14905   4.953   9.727  13.684 -0.0612  0.1259 -0.0267
11308W        W14906   2.368  10.523   0.326  0.1250 -0.2094  0.2151
11309W        W14907  13.277   0.853   8.719  0.1948 -0.1457  0.1820
11310W        W14908   2.084   4.137   9.744 -0.2102  0.1001  0.1185
11311W        W14909  12.126   2.092   7.795 -0.0849 -0.3684  0.1518
11312W        W14910   2.426  15.194  15.009  0.2077  0.1354 -0.0356
11313W        W14911  12.161   3.070   0.651 -0.1828  0.3930  0.1306
11314W        W14912  11.049  10.055  12.911  0.0742 -0.2313 -0.0821
11315W        W14913   7.535  13.712   5.348 -0.0895 -0.0953 -0.0956
11316W        W14914   2.568  12.729  15.095  0.1872 -0.1829  0.1449
11317W        W14915   5.279   6.251  16.317  0.2293  0.1904  0.0850
11318W        W14916  10.301   7.508  14.390  0.5845 -0.1627 -0.0662
11319W        W14917   4.236   7.441  10.952  0.0817  0.2343  0.0690
11320W        W14918   9.344   4.941   7.500  0.2983 -0.0183  0.2915
11321W        W14919   2.476  14.994   4.154 -0.0349 -0.2611 -0.2643
11322W        W14920   8.817   1.442  11.504  0.3157  0.2376  0.2700
11323W        W14921  10.302   6.045   0.861 -0.0810  0.1709 -0.0343
11324W        W14922   4.300   1.922   6.653 -0.1939  0.4184  0.1752
11325W        W14923  15.024  13.716  11.467 -0.0031  0.1535 -0.3826
11326W        W14924   5.751   5.393   1.700 -0.0804 -0.0423  0.0284
11327W        W14925   3.818   8.018   0.286  0.0555  0.1861 -0.2379
11328W        W14926  10.681   7.855   3.431 -0.1321 -0.1638  0.0921
11329W        W14927   2.835   9.144   1.467 -0.1836 -0.1110  0.3119
11330W        W14928   3.036  10.897  13.560 -0.1704 -0.2453  0.2918
11331W        W14929  15.212  10.942  10.920 -0.1669  0.0727  0.2094
11332W        W14930   7.582   1.039   0.688 -0.1558  0.2569  0.0017
11333W        W14931   8.639   5.177   1.604  0.2865  0.0185  0.2929
11334W        W14932   2.816   1.440   4.385  0.0720  0.0001  0.2669
11335W        W14933   3.388   3.697  12.447 -0.1572 -0.3526  0.1750
11336W        W14934   4.895   0.593  12.063  0.1335 -0.2985 -0.0789
11337W        W14935   2.391   7.983   5.386 -0.3951 -0.2800 -0.0569
11338W        W14936  10.086  14.040  11.702 -0.2821  0.0688  0.2174
11339W        W14937  10.985   1.256  13.474 -0.2296  0.2117  0.0490
11340W        W14938   7.484   5.126  13.138  0.0769  0.0876  0.0873
11341W        W14939   6.415  14.737  16.383 -0.2193 -0.0370 -0.1998
11342W        W14940  12.044   9.350  11.972 -0.1864  0.0625  0.1149
11343W        W14941   2.298   3.397  13.589 -0.2935  0.0974  0.1789
11344W        W14942   4.017   6.260   8.631 -0.0424  0.0205 -0.0307
11345W        W14943   4.059   3.617   9.707  0.1525  0.1081 -0.0959
11346W        W14944  15.647  11.505   1.526 -0.0266  0.1605 -0.0989
11347W        W14945  14.882   8.503   0.199  0.1605 -0.1318  0.0156
11348W        W14946   5.418   5.715  10.465  0.1962  0.0233 -0.2255
11349W        W14947   3.818   2.873  13.588  0.0072 -0.0088 -0.1171
11350W        W14948  15.793  14.671  10.828  0.5159 -0.2510 -0.2115
11351W        W14949  15.483   4.792  14.751  0.0753  0.0601  0.3007
11352W        W14950   2.145  16.226   4.175  0.0867 -0.1316 -0.0829
11353W        W14951   4.369   1.511   3.197  0.2372  0.1696  0.2484
11354W        W14952   0.495  15.932  15.102  0.1150  0.3365  0.0514
11355W        W14953   6.120  11.704   5.817 -0.1935 -0.4361  0.3581
11356W        W14954   6.454   8.788   7.002 -0.0099 -0.2626 -0.2263
11357W        W14955   0.251   4.136   5.410  0.2486  0.2184  0.0628
11358W        W14956   2.116  14.623   3.529 -0.1464 -0.3570  0.0225
11359W        W14957   8.815   6.025   4.431  0.1506 -0.0791 -0.1421
11360W        W14958  16.392  14.305  10.143  0.3147  0.1507  0.0097
11361W        W14959   6.555  14.414  12.806 -0.2608 -0.1958 -0.1628
11362W        W14960   9.218   8.658   0.012  0.0806 -0.1978  0.0165
11363W        W14961   9.816   3.605   5.152  0.0703  0.1831 -0.0689
11364W        W14962   1.565   3.272   2.950  0.2805 -0.0532 -0.0294
11365W        W14963  15.282  15.368  16.381 -0.1378  0.1908  0.0887
11366W        W14964  14.684   7.950  12.565 -0.0168 -0.0791  0.1115
11367W        W14965   6.093  15.316   7.355  0.1642  0.1947 -0.2248
11368W        W14966   2.796   4.792  14.331  0.0381  0.0106 -0.0726
11369W        W14967   8.966   3.933   0.537 -0.0592  0.0146 -0.0331
11370W        W14968   7.962   4.070   2.481  0.1677  0.0496  0.3015
11371W        W14969   6.361  10.110  14.909 -0.0725 -0.0873  0.2056
11372W        W14970   8.880  15.915  15.090 -0.1735 -0.0339 -0.0614
11373W        W14971   4.254   4.922   4.664 -0.0609 -0.0700  0.3729
11374W        W14972   8.533   4.736  14.661  0.0666  0.5863 -0.0159
11375W        W14973   1.816  12.248   4.476 -0.3727 -0.2180  0.2828
11376W        W14974   9.609   7.083   2.155  0.1629 -0.1682 -0.0074
11377W        W14975  15.812  10.153   3.071  0.1364  0.1388  0.1935
11378W        W14976   9.283   0.358   2.476 -0.0976 -0.0282  0.2130
11379W        W14977   1.227  13.960   9.718  0.1088  0.1104  0.0890
11380W        W14978  10.591  10.276   7.455  0.0212 -0.1893  0.1332
11381W        W14979  11.782   1.939   4.911  0.0107 -0.2678  0.0991
11382W        W14980   2.391   2.325   6.286 -0.2652 -0.0912 -0.3732
11383W        W14981  13.281  12.636  12.457 -0.0097 -0.0113 -0.2199
11384W        W14982   1.595   2.651   1.612  0.2945  0.3923 -0.2776
11385W        W14983  12.796   5.589  14.079 -0.1670 -0.2081 -0.0764
11386W        W14984   0.766   8.623   4.305  0.1548  0.3144  0.2462
11387W        W14985   8.289  15.393   9.667  0.0176 -0.1591 -0.0976
11388W        W14986   5.033   9.179   1.739 -0.1412  0.1462 -0.1595
11389W        W14987   8.394  15.828   8.356 -0.0519 -0.3164  0.2836
11390W        W14988   6.927   0.541  14.259  0.0800  0.3665 -0.2155
11391W        W14989   3.121  11.257  13.098  0.0961  0.1112 -0.0725
11392W        W14990   5.351   0.200   7.118 -0.1752 -0.1067  0.0379
11393W        W14991   1.156   5.057   3.921 -0.2589  0.2508  0.0387
11394W        W14992   0.194   2.649   6.106 -0.0014 -0.0095  0.2587
11395W        W14993   3.923  13.996  11.093 -0.0203 -0.0024 -0.0737
11396W        W14994  14.180  11.239   8.751  0.2181  0.0099  0.0656
11397W        W14995   7.432   5.490  14.049 -0.1767  0.0250  0.0825
11398W        W14996   5.069   9.648   2.443 -0.0722 -0.0502 -0.1256
11399W        W14997   6.033   8.349   8.916 -0.1078 -0.0375 -0.4012
11400W        W14998  11.419   3.273   5.915  0.0486  0.1001  0.1282
11401W        W14999   9.205   3.194   8.326 -0.0971  0.4424  0.0158
11402W        W15000  14.465  13.596  12.219  0.2840 -0.3081  0.0229
11403W        W15001   8.335  14.692  10.170 -0.1433  0.1805 -0.3021
11404W        W15002   2.234   3.461   7.597 -0.0638  0.1922  0.0603
11405W        W15003   2.674   8.888   8.051  0.2713  0.1041 -0.0273
11406W        W15004   6.001   3.828   4.177 -0.0998 -0.2980 -0.3228
11407W        W15005   7.718  16.083   6.469  0.1996  0.0378 -0.0732
11408W        W15006   1.482   3.055   7.733  0.1183  0.0370  0.0850
11409W        W15007  15.182   3.741  13.894  0.2269 -0.1395 -0.1784
11410W        W15008   2.195   3.791   9.356  0.0180  0.3079 -0.1859
11411W        W15009   2.596   5.256   7.426 -0.0303 -0.1759  0.1159
11412W        W15010   7.565  15.042   9.546  0.4169  0.0259  0.0154
11413W        W15011   7.028  15.836   6.824  0.1010 -0.1188 -0.1088
11414W        W15012   3.003  16.358  12.333  0.0229  0.1473  0.1936
11415W        W15013  12.787  15.183   7.889 -0.3246  0.3139 -0.1028
11416W        W15014   4.662   4.571  15.088 -0.0506 -0.1711 -0.2007
11417W        W15015   3.778   4.035   3.622 -0.1786  0.0440  0.0696
11418W        W15016   3.822   9.775   7.357  0.0805  0.0000  0.2287
11419W        W15017  13.002   9.019  11.401 -0.0723 -0.0912  0.2491
11420W        W15018   3.625   5.032   9.518 -0.0030  0.1298 -0.0495
11421W        W15019   4.344   7.705   6.363 -0.2083  0.0538 -0.0724
11422W        W15020  11.115  13.914   9.168  0.2598  0.1066 -0.1799
11423W        W15021  10.993  16.114   8.153  0.0717 -0.2931 -0.2353
11424W        W15022   0.009  10.104  11.842 -0.1397 -0.1715  0.1218
11425W        W15023  12.157   4.197   2.593  0.0998  0.2637  0.1073
11426W        W15024   6.714   8.834   0.465  0.0782 -0.0648 -0.0773
11427W        W15025   2.140   8.994  12.218  0.0694 -0.0216 -0.1166
11428W        W15026  15.070  15.112   7.149 -0.0507  0.0693 -0.0454
11429W        W15027  15.559   4.841  10.144  0.4544 -0.2362 -0.0304
11430W        W15028  15.520  13.892   7.190 -0.1287 -0.2275  0.0929
11431W        W15029   6.611   6.115  13.507  0.1430 -0.1762  0.2243
11432W        W15030   5.305   4.503  13.827  0.1941 -0.0337  0.1652
11433W        W15031  10.893   3.946   8.125 -0.0595 -0.3526  0.0273
11434W        W15032  10.889  16.155   7.024 -0.2050  0.0399 -0.2275
11435W        W15033   9.902  15.930   7.198 -0.2421 -0.2156 -0.0382
11436W        W15034   4.625   9.164  13.572  0.1217 -0.2914 -0.0305
11437W        W15035  10.876  15.409  12.518  0.1962  0.0832  0.2386
11438W        W15036  11.358   0.286  12.523  0.0148  0.0945  0.0511
11439W        W15037   5.394   3.925  12.019  0.0434  0.2767 -0.3669
11440W        W15038  15.538  11.642   8.364  0.1875  0.1909  0.2117
11441W        W15039   9.128  16.357   6.670  0.0817 -0.1285  0.2249
11442W        W15040   4.669  12.744  15.047  0.1355 -0.1312  0.1263
11443W        W15041   2.742  11.768  13.020  0.1500  0.0802 -0.1608
11444W        W15042   7.836   7.995   3.788 -0.0055 -0.0296  0.1288
11445W        W15043   8.993   9.894  14.332 -0.2524 -0.1215 -0.0827
11446W        W15044  14.440   9.764   9.705  0.2141 -0.0371  0.0933
11447W        W15045   5.113   2.106  13.920  0.0355 -0.2114 -0.1694
11448W        W15046   5.906  16.090  12.819  0.2072  0.0684 -0.1698
11449W        W15047  12.899   0.296   9.317  0.0245 -0.3243  0.1363
11450W        W15048   7.222  11.789   9.736  0.2082  0.1042  0.0740
11451W        W15049  13.078   8.471   9.840  0.2501  0.2338 -0.3499
11452W        W15050   4.947  12.472  12.222  0.0267 -0.1430 -0.0580
11453W        W15051   4.352   4.688   7.649  0.1306 -0.2768  0.1303
11454W        W15052  14.942   7.301  10.360 -0.0479 -0.1045 -0.2275
11455W        W15053   0.029   7.319  13.271 -0.2137 -0.1509  0.1025
11456W        W15054   6.491  10.638   5.499 -0.1161  0.1313 -0.3610
11457W        W15055   7.418   1.467  13.623 -0.1319 -0.0207  0.5999
11458W        W15056  13.237   3.400  13.746  0.0921  0.0355 -0.2293
11459W        W15057  14.929   8.984  10.555  0.0133 -0.0634 -0.0486
11460W        W15058  13.525   9.307  12.095  0.2550  0.2634 -0.0733
11461W        W15059   5.597  16.079   8.849 -0.1497  0.1094 -0.0683
11462W        W15060   9.566   7.136  15.831  0.0351 -0.2023 -0.0996
11463W        W15061   9.090   8.751   4.508 -0.1274  0.2462 -0.2130
11464W        W15062   3.655   7.339   9.205  0.1512  0.0963  0.0111
11465W        W15063  10.573  15.868  15.681  0.0478 -0.0521  0.0143
11466W        W15064  12.348   0.479  11.866 -0.4373  0.1208 -0.2006
11467W        W15065  15.676  14.895  11.672  0.3198  0.2964  0.1571
11468W        W15066  10.631  14.635   1.444  0.1188  0.1257 -0.0263
11469W        W15067  13.656   9.569   7.808  0.1430 -0.0475 -0.0901
11470W        W15068  12.688   3.856   6.755 -0.0703 -0.0050  0.1071
11471W        W15069  11.964  16.322  13.310 -0.0730  0.1828 -0.0035
11472W        W15070  10.626   1.726   5.706  0.0359 -0.1823  0.0958
11473W        W15071  13.546  10.543   8.289 -0.0985 -0.0381 -0.0625
11474W        W15072  11.670   7.809   1.244 -0.0439  0.1558 -0.3925
11475W        W15073  14.393  10.964   5.151  0.0409  0.0127 -0.0142
11476W        W15074  15.525   7.116   1.365 -0.0118 -0.0420 -0.5754
11477W        W15075  11.589   9.465   1.289 -0.1536  0.0713  0.1706
11478W        W15076  13.534  12.321   5.250  0.0732  0.3882 -0.0077
11479W        W15077  10.982   9.540  11.023  0.2849 -0.4354  0.1055
11480W        W15078  14.465   7.748   9.002  0.2251  0.0103 -0.2687
11481W        W15079   2.316   5.973  10.222 -0.2465 -0.2046 -0.0308
11482W        W15080   3.523   3.150   7.193  0.2484  0.1249 -0.0055
11483W        W15081  10.173   8.931   7.255 -0.1798  0.2025  0.0868
11484W        W15082   3.727   5.706   6.136 -0.1168 -0.1360  0.0917
11485W        W15083   3.849  16.246  16.226 -0.2498  0.1492  0.1302
11486W        W15084   0.552   6.124   0.325 -0.0696 -0.0194  0.0017
11487W        W15085   0.712   7.269   8.816  0.2571 -0.2177  0.1171
11488W        W15086   0.897   2.565   4.785  0.2468 -0.0166  0.0282
11489W        W15087   1.369  15.193  14.633  0.0044 -0.1172 -0.0764
11490W        W15088   5.143  11.187  12.661 -0.1191 -0.2340 -0.1976
11491W        W15089   2.709   9.940   7.660  0.0264 -0.3872 -0.0099
11492W        W15090   6.303   6.728   7.700  0.1667  0.2832  0.0447
11493W        W15091  16.310   1.194   6.279  0.0640 -0.2891 -0.3590
11494W        W15092   8.054   0.423  15.830  0.0285 -0.0211  0.1415
11495W        W15093   5.878  13.837  16.245 -0.0424  0.2752 -0.0918
11496W        W15094   3.994   5.428  15.742  0.0730 -0.0378 -0.0104
11497W        W15095   6.115  10.591   9.747  0.2453  0.0935  0.0934
11498W        W15096   1.315   5.143  13.749  0.0824 -0.1835 -0.1182
11499W        W15097  15.263  12.482  11.976  0.0409 -0.1482 -0.1575
11500W        W15098  14.316   5.943   2.532  0.0249  0.0749 -0.1503
11501W        W15099  16.259   9.186  13.531  0.1563 -0.0812  0.0687
11502W        W15100  12.348   5.010   4.238  0.1757  0.2415  0.0682
11503W        W15101   5.224   6.848  13.780 -0.2545 -0.2172  0.2024
11504W        W15102  10.911  11.888  14.221 -0.2076  0.0998  0.1548
11505W        W15103   5.816   0.926   8.908  0.2462 -0.2125  0.3744
11506W        W15104   8.171  11.249   6.135  0.0425  0.0279 -0.1963
11507W        W15105   4.695  13.200  15.775 -0.3857 -0.1572 -0.0835
11508W        W15106  12.684  15.933  11.870 -0.0269  0.4480  0.1609
11509W        W15107   0.939   4.241   3.761  0.3136  0.2116 -0.0149
11510W        W15108   0.643   0.382   9.552 -0.1488  0.0408  0.0684
11511W        W15109  15.158  13.165   0.024  0.1897  0.0165 -0.1187
11512W        W15110   6.469  11.676   6.161 -0.1837  0.2885 -0.3178
11513W        W15111   1.700   4.467   6.522 -0.2189  0.0750  0.2342
11514W        W15112   4.323  11.986  13.356  0.0853  0.1334  0.1642
11515W        W15113   4.519  10.960   4.702  0.2214 -0.1823  0.1424
11516W        W15114  10.464   9.885   6.014 -0.3295  0.1665  0.2562
11517W        W15115   1.719   2.360  12.674 -0.1415  0.3003 -0.1454
11518W        W15116   9.655   5.821  12.042  0.2865  0.2981  0.1886
11519W        W15117   8.828  10.221  12.554 -0.1835  0.1126  0.3365
11520W        W15118  14.283   7.203  14.261 -0.1582 -0.0991 -0.0691
11521W        W15119  15.747  16.041   1.554 -0.2626 -0.1023  0.2124
11522W        W15120   4.859   7.848  11.918  0.0624  0.0701 -0.1872
11523W        W15121   7.184   0.974  11.461  0.2296  0.0702 -0.0909
11524W        W15122   9.130  12.606  13.627  0.2448  0.0502  0.1324
11525W        W15123  15.190   1.256  14.889 -0.0813  0.0060 -0.1543
11526W        W15124   2.602   8.167  11.462  0.0780  0.1860  0.1476
11527W        W15125   3.954  10.847  12.924  0.2750  0.1952  0.1313
11528W        W15126   4.599  14.777   1.668  0.6503  0.1866 -0.1010
11529W        W15127   5.719  10.337   6.760  0.0492 -0.4601  0.0151
11530W        W15128   0.162   6.280  14.339 -0.2276  0.1342  0.3632
11531W        W15129   0.970  12.628   0.122 -0.4097  0.2037 -0.4181
11532W        W15130   8.626  12.712   2.729 -0.3750 -0.0227  0.1362
11533W        W15131   1.851   6.500   2.571  0.1698 -0.0135  0.2074
11534W        W15132   6.133  12.209   6.754 -0.4141  0.0053  0.0448
11535W        W15133   1.266  11.691   0.345  0.1228  0.2944  0.2009
11536W        W15134  16.028   8.521   4.264 -0.0081 -0.4686 -0.2008
11537W        W15135  12.660   6.107  14.261 -0.1935 -0.1063  0.0574
11538W        W15136   2.834   5.938   3.469  0.0748 -0.0286 -0.0004
11539W        W15137   9.240  15.925   9.214  0.4145  0.1326  0.2136
11540W        W15138  14.823   0.722  10.759  0.0404 -0.0272  0.3410
11541W        W15139   1.650  15.375  13.163 -0.0261  0.0046 -0.2872
11542W        W15140  12.567  15.338  15.668  0.2016  0.2776 -0.0679
11543W        W15141  10.559  15.495  15.316 -0.2136  0.2603  0.4003
11544W        W15142   6.575   9.069   5.202 -0.0633 -0.1287  0.0470
11545W        W15143  15.408   8.123   0.488 -0.1952 -0.0419  0.0640
11546W        W15144   5.088  13.047   8.616 -0.2165 -0.3331 -0.0761
11547W        W15145   0.617   0.342   0.879  0.0488 -0.0502  0.0038
11548W        W15146  11.140   2.018   2.374 -0.1047 -0.1520  0.1248
11549W        W15147  14.932  11.427  14.347  0.0069  0.1698 -0.1403
11550W        W15148   7.034   4.522  11.961  0.0377  0.0246  0.1276
11551W        W15149   4.515   7.450   1.468  0.0955  0.1545 -0.2221
11552W        W15150  14.369   4.065  10.899  0.0216 -0.0056 -0.0331
11553W        W15151  10.873   3.211   7.339 -0.0650  0.0897  0.2616
11554W        W15152  11.827   7.474   3.773  0.1350  0.0243  0.2346
11555W        W15153   0.969   0.757   5.877 -0.0911 -0.2700 -0.4932
11556W        W15154  10.567  15.316  10.082 -0.2895  0.0847  0.0989
11557W        W15155   7.835   9.801   5.643  0.1013  0.0870 -0.0647
11558W        W15156  10.965  14.102   7.375 -0.1156 -0.0058  0.1716
11559W        W15157   8.972   4.557   6.197  0.0730  0.0867  0.1201
11560W        W15158  15.574   3.948   1.415  0.5616 -0.0303  0.1025
11561W        W15159  10.952  10.041  16.334 -0.0106  0.3118  0.1115
11562W        W15160  11.218  13.910  15.324  0.2761 -0.0697  0.1260
11563W        W15161   2.095   5.425   3.125  0.0625 -0.0611  0.1102
11564W        W15162   4.083   2.515   5.793  0.2831 -0.1467  0.1092
11565W        W15163  14.778   2.599   2.177  0.0745  0.1829 -0.1782
11566W        W15164   1.888   2.972   3.837  0.2003 -0.2000 -0.0784
11567W        W15165  10.196   7.495   1.099 -0.0654  0.1839 -0.0984
11568W        W15166  14.671   0.007   0.741 -0.1197  0.1969 -0.2637
11569W        W15167   5.809   1.332   2.587 -0.2361 -0.1295 -0.0198
11570W        W15168   6.180  12.070  10.362  0.2502  0.3409 -0.0054
11571W        W15169   3.013   0.399  12.532 -0.0141 -0.0351  0.0034
11572W        W15170   1.535   7.849  15.721  0.0404  0.3008  0.2555
11573W        W15171   8.006   8.277  11.714  0.0509 -0.0305  0.0244
11574W        W15172   0.948   5.712   0.011 -0.3910 -0.0306 -0.0831
11575W        W15173   9.571   8.948   4.811 -0.1295 -0.0689 -0.3365
11576W        W15174   8.672   0.553  12.216 -0.2091 -0.0274  0.5256
11577W        W15175  12.396  11.347  13.272  0.1643  0.3236  0.0878
11578W        W15176  14.354   3.289  12.048 -0.2779 -0.1643 -0.1762
11579W        W15177  11.458  15.511   8.422  0.3144  0.1076 -0.0092
11580W        W15178   4.267   8.545  13.349  0.0085  0.2859 -0.0319
11581W        W15179  14.602   7.982   1.435  0.2595  0.2725  0.2692
11582W        W15180   9.832  12.640  12.877  0.1631 -0.3236  0.1294
11583W        W15181  14.377   7.061   4.500 -0.0591 -0.0842  0.1305
11584W        W15182   5.666   9.353   7.805  0.0159 -0.1482  0.0089
11585W        W15183   9.067  14.275  15.457  0.2196  0.0447 -0.0854
11586W        W15184   4.061  10.339   9.015 -0.1485 -0.2520 -0.1524
11587W        W15185  13.156   5.864   5.929  0.0799 -0.2190 -0.1181
11588W        W15186   9.536  10.270  10.514 -0.2364  0.2890  0.2093
11589W        W15187   2.959   5.888  10.872 -0.0008  0.2456  0.0928
11590W        W15188  16.390   1.956  16.087 -0.2550  0.2374 -0.0581
11591W        W15189  14.843  15.828   2.589  0.0203 -0.3255 -0.0201
11592W        W15190  16.226  15.513   3.733 -0.1055  0.3175 -0.3516
11593W        W15191   3.430  14.551  10.632  0.0759 -0.2137  0.1726
11594W        W15192   0.576  13.532   6.030  0.0066  0.0528  0.1886
11595W        W15193   6.817  16.030   8.073 -0.0746 -0.2588 -0.0969
11596W        W15194  14.309   1.939   6.443 -0.0337  0.2429  0.2702
11597W        W15195   2.255   8.033   0.813  0.3570 -0.0101 -0.2486
11598W        W15196  16.105   2.956  11.365  0.3039  0.1401 -0.0472
11599W        W15197  15.051  16.278  13.634  0.0637  0.1544 -0.1541
11600W        W15198  12.308  11.120  14.259 -0.1360 -0.1293 -0.2468
11601W        W15199  10.310   5.391   6.064 -0.0533 -0.1800 -0.1929
11602W        W15200  16.215   0.550  11.863 -0.2140  0.3203 -0.2676
11603W        W15201  15.481   5.349  13.132  0.1209 -0.2069  0.0655
11604W        W15202   5.534  13.779   6.770 -0.1198 -0.2304  0.1442
11605W        W15203   7.015  10.983  14.689 -0.1528 -0.0518 -0.1865
11606W        W15204   6.197  14.270   3.626 -0.1720 -0.0356 -0.0184
11607W        W15205   0.045   3.268   6.714 -0.2539  0.2087  0.0593
11608W        W15206  10.477   7.147   7.106 -0.1149 -0.0309 -0.0004
11609W        W15207  14.708   7.915   2.341  0.0906  0.1323 -0.1297
11610W        W15208  14.280  13.272   0.440  0.2197  0.0857 -0.0481
11611W        W15209   3.994  12.045   0.006  0.0657 -0.1014 -0.0872
11612W        W15210  14.208   2.398   6.065  0.0843  0.1304  0.1237
11613W        W15211   2.259   7.058   1.191 -0.0789 -0.0605 -0.0475
11614W        W15212   4.560  12.231   7.903 -0.0463  0.0641  0.0571
11615W        W15213   9.569  11.878   1.800 -0.2237 -0.1616  0.1421
11616W        W15214  11.447   5.511   7.251 -0.0048  0.2893 -0.2937
11617W        W15215   6.612  12.495  11.801  0.3401  0.0364  0.0171
11618W        W15216   5.394   6.386  13.929  0.0767  0.2901  0.1582
11619W        W15217  15.447   4.360  15.136  0.0453 -0.2059  0.1739
11620W        W15218   5.772   0.143   2.095 -0.0070 -0.2168  0.2142
11621W        W15219  13.043  12.176   1.006  0.0490 -0.2662 -0.0878
11622W        W15220   2.101  15.577  12.872 -0.0095  0.2521 -0.1254
11623W        W15221   1.862   3.066   6.410  0.0910 -0.1166 -0.0011
11624W        W15222  11.939   6.110   9.659  0.1327  0.0040 -0.3089
11625W        W15223  12.534   5.235   0.199 -0.3434 -0.1427  0.0620
11626W        W15224  16.302   1.467  16.188 -0.1124 -0.1047 -0.0110
11627W        W15225   1.236   8.080   0.418 -0.0165  0.4826  0.0200
11628W        W15226   6.177   4.403   7.652  0.0784 -0.1554  0.0983
11629W        W15227  11.288   3.373   9.863  0.2139 -0.4523  0.0668
11630W        W15228  12.088   8.912   7.277 -0.0377  0.2044  0.0760
11631W        W15229  13.794   9.122  10.787  0.0823  0.1302 -0.0621
11632W        W15230   9.958   0.296  14.573 -0.1826 -0.1874  0.1618
11633W        W15231   3.270   5.096  14.405  0.1523 -0.1286 -0.1578
11634W        W15232   9.478  14.677  15.908  0.4103 -0.1642 -0.0548
11635W        W15233   0.592   3.441  11.322 -0.1450 -0.0683  0.1763
11636W        W15234   8.419   6.707  11.396 -0.0036  0.0362  0.2073
11637W        W15235  12.037   4.506  15.199  0.0502 -0.1343  0.3680
11638W        W15236   5.405   1.381  13.135  0.2674 -0.3000 -0.2113
11639W        W15237  14.840  15.835   8.492  0.2802  0.0813  0.1991
11640W        W15238  12.096   5.581   0.354 -0.1218 -0.1740 -0.2366
11641W        W15239   1.872  15.509   9.026  0.2123  0.1521  0.2833
11642W        W15240  14.971  15.923   7.435  0.0124 -0.1673 -0.1133
11643W        W15241   7.513   2.401   9.892 -0.1992 -0.0886  0.2936
11644W        W15242  10.315   1.034   6.325  0.0669 -0.2230  0.3453
11645W        W15243  13.369  16.127  14.393  0.1208 -0.0942  0.0430
11646W        W15244   0.060  12.530   3.618 -0.0808  0.0194 -0.0625
11647W        W15245   7.925   5.551   5.222  0.0223 -0.1903  0.1477
11648W        W15246  15.832   2.978   6.123  0.1601  0.0182 -0.1454
11649W        W15247   3.959  10.986   5.516  0.1340  0.0138  0.0111
11650W        W15248   5.106  13.674   7.790  0.0235  0.1005 -0.0389
11651W        W15249   9.492   8.695   2.348 -0.1184 -0.0045 -0.2428
11652W        W15250  10.297  16.210   9.971  0.4891  0.0598  0.0359
11653W        W15251  13.762   3.078   4.753 -0.0314 -0.3046 -0.1924
11654W        W15252   1.320   5.149   0.967  0.0975 -0.1449  0.0496
11655W        W15253   1.734   4.061  11.214  0.1840  0.1633  0.2798
11656W        W15254   9.715   4.255  15.288  0.2150 -0.1476  0.2400
11657W        W15255   7.057   2.198   4.548 -0.0234 -0.0211 -0.0854
11658W        W15256  16.230   9.049  10.013  0.1502  0.2573 -0.1004
11659W        W15257   5.935  13.329  12.530  0.0710  0.2285  0.3049
11660W        W15258   3.453   8.177  13.842 -0.0494 -0.3857  0.0676
11661W        W15259   9.549  12.345   3.137  0.0642  0.0062  0.2886
11662W        W15260   0.259   5.417  10.460 -0.3369 -0.1351  0.2538
11663W        W15261  13.122  15.120  13.884  0.2577 -0.1012 -0.1549
11664W        W15262   7.169  10.509  14.659  0.1110  0.3061  0.0205
11665W        W15263   9.062  15.787  14.624 -0.0932 -0.1087  0.0965
11666W        W15264   4.108  10.918  11.013  0.0590  0.0584 -0.1128
11667W        W15265   2.947   4.044   3.848 -0.0267  0.0407  0.0238
11668W        W15266   6.116  14.888   1.575 -0.1143  0.2238  0.2843
11669W        W15267   7.285  14.330   0.663  0.1427 -0.0823 -0.0695
11670W        W15268   6.242  13.277  11.320  0.2948  0.2701 -0.2112
11671W        W15269  15.200   8.299   4.334  0.1466 -0.0583  0.2410
11672W        W15270   8.443   6.426   3.327  0.3310  0.0314 -0.1958
11673W        W15271  13.087  11.353  14.938  0.0531 -0.0646  0.1597
11674W        W15272   5.851   4.651  14.060 -0.1664 -0.0007 -0.0412
11675W        W15273   5.241   8.582  12.069  0.2034  0.0867 -0.0126
11676W        W15274   6.924  15.502  11.103 -0.2833  0.0943 -0.4184
11677W        W15275   3.803   6.208   0.489  0.0514  0.1931  0.1487
11678W        W15276   4.355   1.461   8.046 -0.2144 -0.0128  0.1184
11679W        W15277   6.012   5.994  10.723 -0.1544  0.2415 -0.2313
11680W        W15278   9.494   9.303  16.258  0.1941  0.4250 -0.0423
11681W        W15279   2.299  14.450  10.044  0.0908  0.1809  0.0508
11682W        W15280   7.827   4.194  14.956  0.2762 -0.3192 -0.0119
11683W        W15281  16.379  14.911   1.390 -0.2257 -0.0226 -0.0501
11684W        W15282  11.311   7.245   6.729 -0.3205 -0.0164  0.1261
11685W        W15283  13.390  16.112   2.160 -0.3253 -0.0176  0.0340
11686W        W15284   5.237   2.933   3.036  0.0176 -0.0362 -0.1134
11687W        W15285  15.632   5.731  15.836 -0.2143 -0.0188  0.2830
11688W        W15286   8.685   9.065   2.268 -0.0726 -0.0782 -0.0736
11689W        W15287   4.168   5.482   3.701  0.2847  0.0118 -0.0572
11690W        W15288  12.566   0.548   3.411 -0.0651  0.0450  0.4628
11691W        W15289   6.063  10.017   5.942  0.0918  0.0594 -0.2948
11692W        W15290   1.238  15.972  15.074 -0.3622 -0.1771  0.2907
11693W        W15291  10.891   8.967   4.084 -0.4440 -0.0933  0.1486
11694W        W15292   4.008  14.752   7.606  0.0303  0.2578 -0.0353
11695W        W15293  15.448   3.423   2.950  0.0037  0.3092 -0.1541
11696W        W15294   8.155  14.901   8.988 -0.3117  0.2434  0.1882
11697W        W15295  12.966   5.233   8.983 -0.3069  0.0424 -0.1844
11698W        W15296   0.613   5.017  11.943  0.0431 -0.0665  0.2601
11699W        W15297  14.603  12.278  11.475  0.0430 -0.1012 -0.0902
11700W        W15298  15.922  14.422  14.553  0.3364  0.0918 -0.1576
11701W        W15299   9.122  14.656   8.424  0.0042 -0.2690 -0.1519
11702W        W15300   2.560   0.485   8.808 -0.1229 -0.2223 -0.1769
11703W        W15301  13.205   2.077   9.675 -0.2017  0.1155 -0.1077
11704W        W15302  11.766  15.818   7.091 -0.3596  0.1624  0.2324
11705W        W15303   4.631   5.191   8.789  0.1854  0.1894  0.0113
11706W        W15304   8.366  12.974   4.343 -0.0968  0.2907  0.0474
11707W        W15305   7.264   7.910   8.621 -0.0581 -0.0717  0.0089
11708W        W15306  10.191  15.051   7.292  0.0991 -0.1181 -0.0440
11709W        W15307  16.243   4.323   1.473  0.2016 -0.1932 -0.1691
11710W        W15308   8.941   3.904   8.166  0.0255  0.2729  0.2136
11711W        W15309  13.534  13.213  11.312  0.2233 -0.3045  0.0772
11712W        W15310  15.175   7.796  11.451  0.0046 -0.2238  0.0794
11713W        W15311   9.842   2.170   3.376 -0.0056 -0.0110  0.0449
11714W        W15312   5.417   2.528  11.157 -0.2414 -0.1420 -0.1758
11715W        W15313   7.072  13.743   5.534  0.1404 -0.0427  0.1986
11716W        W15314   5.533  10.452  14.752  0.0549  0.2722 -0.0423
11717W        W15315   7.739   8.482   5.269  0.1557 -0.0265  0.0044
11718W        W15316   4.032  12.690   5.988  0.0386 -0.1705 -0.1227
11719W        W15317  12.961  15.542  14.571  0.1745  0.2522  0.0276
11720W        W15318   0.656   2.780   9.860  0.1420 -0.3773  0.1810
11721W        W15319  15.273   5.128  10.453 -0.1891  0.0402  0.1255
11722W        W15320   7.454   1.500   9.355  0.0400  0.0272  0.0989
11723W        W15321  15.158   1.678   5.950  0.2424 -0.0285 -0.0028
11724W        W15322  15.079   7.683  16.117  0.2390 -0.0347 -0.1009
11725W        W15323  14.142  11.446  10.989  0.1644  0.0549 -0.2228
11726W        W15324   7.315   0.867  10.985 -0.1282  0.1492 -0.4518
11727W        W15325  11.074  15.657  15.635  0.0213  0.0516  0.0327
11728W        W15326   6.798  12.182   7.548 -0.1250 -0.1649 -0.1002
11729W        W15327   4.392  13.840  13.837 -0.1935  0.1790 -0.2961
11730W        W15328   1.143   9.552   1.978  0.1152 -0.1192  0.4371
11731W        W15329   9.707   3.629   7.823  0.0429 -0.1083  0.2965
11732W        W15330  12.964   5.235   7.160  0.0509  0.0817 -0.4155
11733W        W15331   1.337   6.275  11.484  0.1087  0.0371  0.0754
11734W        W15332   0.332   9.887   1.343 -0.2067 -0.0133 -0.2072
11735W        W15333   4.304  11.447   7.920 -0.0610 -0.2396  0.0471
11736W        W15334   5.005  13.260  16.154 -0.3603  0.2949 -0.3348
11737W        W15335  12.584  15.892   1.654  0.3319 -0.1611  0.0222
11738W        W15336   2.200   0.128   3.688 -0.2382 -0.1724 -0.3526
11739W        W15337   9.962  15.491  14.473 -0.1612 -0.1873 -0.1672
11740W        W15338   3.567  15.921   2.830 -0.0924 -0.2586  0.2118
11741W        W15339   8.843   3.345   6.085  0.2061 -0.2286  0.0183
11742W        W15340  14.391  13.172   8.036 -0.1726  0.0370  0.1110
11743W        W15341   6.124  15.144  16.106  0.0252 -0.1518  0.0973
11744W        W15342   3.019   7.314  12.787 -0.0438 -0.0910 -0.0904
11745W        W15343   8.970  13.274  12.509  0.0714  0.0858 -0.1895
11746W        W15344   6.536   5.028   9.291 -0.0850 -0.3991 -0.1988
11747W        W15345   0.025   0.544  12.770 -0.0038 -0.0672 -0.0285
11748W        W15346   9.626  14.965  12.371 -0.0645  0.1210 -0.1659
11749W        W15347  11.544   0.407  15.785  0.0349  0.0133 -0.0285
11750W        W15348   8.388  16.315  13.821 -0.1971 -0.2463  0.1372
11751W        W15349   9.101   8.286  14.800  0.2021 -0.0534  0.1438
11752W        W15350   6.442  15.779  14.811 -0.0890 -0.2322 -0.1814
11753W        W15351  14.458  11.160  13.219 -0.1455 -0.1395 -0.0637
11754W        W15352   4.430  15.239  10.981 -0.2911  0.0434  0.0819
11755W        W15353   2.192   8.189   0.270  0.2337 -0.2348 -0.2392
11756W        W15354  11.509   7.408   7.197 -0.0592  0.0360 -0.1317
11757W        W15355   2.982   2.235   0.378  0.3515  0.2639 -0.0048
11758W        W15356  10.591   2.801   0.754  0.0158  0.1490 -0.2198
11759W        W15357   4.823  10.456  11.578 -0.1373  0.2428 -0.2244
11760W        W15358   1.618   4.304   4.317  0.0595  0.1996  0.4134
11761W        W15359  12.686   5.135   6.780  0.2961  0.0598  0.0310
11762W        W15360   4.953  10.130   0.485  0.0166  0.0620 -0.2501
11763W        W15361  12.564  10.337   4.633 -0.0696  0.3420  0.0709
11764W        W15362   7.394   9.202   9.526  0.0436 -0.0638 -0.2128
11765W        W15363  11.830  12.812   9.421 -0.1242 -0.0923  0.2451
11766W        W15364   0.715   2.924  13.672  0.0050 -0.0948  0.1857
11767W        W15365   9.262   7.521   1.006  0.1344  0.1476  0.2505
11768W        W15366   4.433   5.856  11.947  0.0239  0.1363  0.2259
11769W        W15367   2.988   5.717   1.272  0.3434  0.3202 -0.0437
11770W        W15368  15.397  13.948  11.248  0.1986 -0.3609 -0.4614
11771W        W15369  11.896   1.631   7.933  0.1085 -0.1800  0.0064
11772W        W15370   7.295  12.352  12.580 -0.0467 -0.2613 -0.5185
11773W        W15371  16.167   3.647  10.108 -0.0096  0.0082  0.0403
11774W        W15372  13.471  10.847  11.218 -0.2345  0.2138 -0.0025
11775W        W15373   0.148  11.211   7.296 -0.3549  0.0511  0.1132
11776W        W15374  12.968   7.265   7.597 -0.1023  0.2475 -0.1787
11777W        W15375  14.081   5.762  14.216  0.2734 -0.2600 -0.0342
11778W        W15376  12.116   1.081  14.767 -0.2294  0.0703  0.2864
11779W        W15377  13.171   5.661  13.508  0.0062  0.2227  0.0147
11780W        W15378  10.139   6.988   1.849 -0.2278 -0.0214  0.2927
11781W        W15379   9.794   5.739  14.057 -0.2906  0.0190 -0.1110
11782W        W15380   0.058   4.479   1.966  0.1646 -0.0346  0.0643
11783W        W15381   0.133   1.630  13.674 -0.0437  0.0382  0.1378
11784W        W15382  13.456  11.548  15.226 -0.0042  0.1601  0.1426
11785W        W15383   7.413   9.353   0.003  0.0634  0.1770  0.0446
11786W        W15384   6.451   6.383  14.939 -0.0773 -0.1740 -0.2140
11787W        W15385   0.968  13.501   7.200 -0.0597  0.1044  0.0411
11788W        W15386   5.096   5.782  12.773  0.2698 -0.3517  0.0675
11789W        W15387  10.950  16.037   9.490  0.1624 -0.1592  0.2006
11790W        W15388  14.308  15.913   8.463 -0.0749 -0.0389  0.0412
11791W        W15389   1.317   4.219  12.860 -0.0773  0.1660  0.1918
11792W        W15390  11.113  16.260   8.956  0.2269 -0.3481 -0.1271
11793W        W15391   2.141   3.946   3.099 -0.3330  0.0904 -0.2421
11794W        W15392   4.784   3.514   6.637  0.2887  0.2548  0.0685
11795W        W15393   1.054   6.095   2.110  0.1688  0.1675 -0.1111
11796W        W15394  12.048  13.915  14.367 -0.0499 -0.2209  0.0705
11797W        W15395   2.682  10.949  13.170 -0.0455  0.0068  0.1264
11798W        W15396  14.287  10.045   9.232 -0.2213  0.0562 -0.4224
11799W        W15397   5.051   3.542   7.504  0.3999 -0.3480  0.3605
11800W        W15398  11.006   2.349  10.505 -0.1806  0.0452 -0.0650
11801W        W15399  15.806   9.150  13.291 -0.0801  0.0505 -0.0558
11802W        W15400   0.759   1.293   0.135  0.1589 -0.0624  0.0533
11803W        W15401  10.575  10.395  15.916  0.0363  0.2899 -0.3363
11804W        W15402   8.640  10.511   2.555  0.5051 -0.0933 -0.1593
11805W        W15403  11.407  12.787  14.320  0.1071 -0.2138 -0.0397
11806W        W15404  14.025  15.460  10.285 -0.1575 -0.0244  0.0644
11807W        W15405  14.739   2.691  11.725  0.0790 -0.0154 -0.0762
11808W        W15406   1.746  11.414   6.245 -0.2009  0.0449 -0.1187
11809W        W15407  15.464  11.112   1.761 -0.0006 -0.0401 -0.0877
11810W        W15408   7.536   8.780   0.894  0.0567 -0.1313  0.2222
11811W        W15409   7.721   9.266   1.695 -0.2306 -0.1412 -0.0383
11812W        W15410   9.763  13.248  12.791 -0.0336  0.2819  0.0957
11813W        W15411  14.116   3.884   0.087 -0.0459  0.1995  0.2544
11814W        W15412   5.995  14.637   3.288  0.1947  0.3186  0.0620
11815W        W15413   5.477   1.070   6.482 -0.0603  0.1015  0.1360
11816W        W15414   6.180  15.146   5.688 -0.0831  0.0267 -0.1358
11817W        W15415  10.460   8.024  11.413 -0.1262 -0.1302 -0.0137
11818W        W15416   6.470   4.887  11.083  0.1338  0.0264 -0.1807
11819W        W15417  10.676   6.494   1.111  0.0677 -0.3435  0.0914
11820W        W15418   3.717   0.627   7.799  0.1353 -0.1547 -0.0323
11821W        W15419  10.106   8.377  10.941 -0.3270 -0.2757 -0.2854
11822W        W15420   3.966   7.796   2.644  0.1349  0.1627 -0.2041
11823W        W15421  12.280   5.092  11.676 -0.1975 -0.1344  0.1240
11824W        W15422   7.123   3.493   5.287 -0.2069  0.1038  0.1607
11825W        W15423   6.952   3.044   7.660  0.3708 -0.1108 -0.0750
11826W        W15424   6.637   6.789   1.619  0.2279 -0.4676  0.0153
11827W        W15425  11.338   1.230   1.561 -0.0646  0.3104 -0.0002
11828W        W15426   8.106  14.625   3.756 -0.0391 -0.2505  0.3101
11829W        W15427  13.092   8.444   3.729 -0.2296 -0.0404  0.2048
11830W        W15428   9.619  10.391  14.942 -0.1304 -0.1730 -0.0154
11831W        W15429  15.895   3.201   7.519  0.0634 -0.2753 -0.5605
11832W        W15430  14.625  13.178  15.349  0.0642  0.0769  0.1669
11833W        W15431  12.078   0.597   3.229  0.0422  0.0159 -0.0043
11834W        W15432  10.575  14.905   4.951 -0.0438 -0.2771 -0.1034
11835W        W15433  12.177   4.466   5.337 -0.1280  0.0921  0.1796
11836W        W15434  12.414   9.730   8.453  0.1032  0.0020  0.3528
11837W        W15435   5.800   3.390   0.740  0.4440 -0.1835  0.1087
11838W        W15436   8.624   3.608   3.174 -0.1194 -0.1000 -0.0039
11839W        W15437  10.524   7.291   1.504 -0.0500  0.0197  0.1176
11840W        W15438   4.168  16.385  12.413  0.1987  0.0949  0.0572
11841W        W15439   8.038  12.066   6.971 -0.1748  0.1296  0.0824
11842W        W15440   6.770   9.215  14.682  0.1605 -0.1517 -0.0120
11843W        W15441   8.670   1.256   4.435 -0.3107 -0.1726  0.0357
11844W        W15442  16.057   7.696  15.254  0.1243 -0.1307 -0.1205
11845W        W15443  13.845  10.114  12.895  0.2726  0.4140  0.1072
11846W        W15444   3.642   0.362   9.885 -0.1986 -0.1547 -0.0372
11847W        W15445   6.112   2.908  15.315 -0.0816 -0.0203 -0.1164
11848W        W15446   1.723  16.303   1.414  0.0219  0.0773 -0.0184
11849W        W15447  12.222  10.716   7.655 -0.1062 -0.3432  0.1492
11850W        W15448   4.833   7.939   5.050 -0.0317 -0.0684  0.1011
11851W        W15449   3.641   6.905   1.304 -0.1852 -0.2349  0.0916
11852W        W15450   9.077   9.347  14.250 -0.0798  0.0202 -0.1122
11853W        W15451  15.416  10.718   6.273 -0.1475 -0.2421  0.0516
11854W        W15452  14.049   1.881   8.309 -0.2146 -0.0693 -0.2148
11855W        W15453   9.937   2.986   1.958 -0.1000  0.1615  0.1430
11856W        W15454  14.320   6.132   7.603 -0.1827  0.1419 -0.1932
11857W        W15455   5.812   6.747  11.161 -0.1019  0.1647 -0.0779
11858W        W15456   7.816  14.734   5.512 -0.1724 -0.0214  0.0348
11859W        W15457   9.377   5.481  12.871 -0.1498 -0.0104  0.3758
11860W        W15458   1.608   3.889   0.725  0.0470  0.3160  0.2398
11861W        W15459   5.855   5.559  15.177  0.0688 -0.4685 -0.1870
11862W        W15460  10.724  14.053  11.153  0.2564  0.2294 -0.1126
11863W        W15461   0.231  11.316  11.276  0.2944 -0.2742  0.0009
11864W        W15462   3.181   7.303   5.346  0.0855  0.1034 -0.1203
11865W        W15463   1.174   3.769   1.788 -0.1668  0.3115  0.1675
11866W        W15464   4.030   7.872   3.162 -0.2072  0.4923  0.1948
11867W        W15465   8.001  12.931  14.095 -0.1221  0.0698  0.1048
11868W        W15466  10.945   5.981   1.369  0.1228  0.3048  0.3453
11869W        W15467   2.256  15.128  16.041  0.0234  0.0157  0.2659
11870W        W15468   2.710   4.091   4.284 -0.0118 -0.0741  0.1848
11871W        W15469   6.979   2.976   1.230  0.2460 -0.1610  0.1232
11872W        W15470  15.791   0.215  15.226 -0.0040 -0.3101  0.1991
11873W        W15471   8.647  11.006   5.874 -0.1244  0.0345  0.1799
11874W        W15472   6.737   4.142   0.260  0.2571 -0.0812  0.0069
11875W        W15473   0.491   1.626  13.116 -0.1879 -0.2600  0.0370
11876W        W15474   3.443   1.233   7.260  0.0243 -0.1765 -0.0202
11877W        W15475  12.507   3.480  10.943 -0.0482  0.0956 -0.5473
11878W        W15476  11.081   6.133   7.884  0.1200 -0.2820 -0.1399
11879W        W15477  15.820   4.881  10.611  0.2951  0.2552  0.4262
11880W        W15478  10.833   4.418   9.328 -0.0367 -0.0608 -0.0304
11881W        W15479   5.506   9.394   6.875  0.2193  0.0887  0.0969
11882W        W15480   0.818  14.030   0.967  0.0290  0.0435 -0.1924
11883W        W15481   3.861   4.230   1.937 -0.1071  0.0093 -0.0276
11884W        W15482   3.254  13.389   2.030 -0.0692 -0.2261 -0.3073
11885W        W15483   8.973   0.521   3.062 -0.0407 -0.3654 -0.1314
11886W        W15484  13.550   7.059   3.616  0.1302  0.1601  0.0707
11887W        W15485   2.961   2.562  10.580 -0.1652 -0.0065 -0.2304
11888W        W15486  15.919  13.352  11.967  0.0517 -0.0955 -0.0649
11889W        W15487   9.367  15.665  15.194 -0.1967  0.3087  0.0097
11890W        W15488   1.493   4.807  12.823 -0.4422  0.2213 -0.0123
11891W        W15489  10.580   0.484  14.764 -0.2079  0.1957  0.2502
11892W        W15490   0.209  15.301   8.694  0.1237  0.0345 -0.3754
11893W        W15491  14.637  10.913   5.573  0.0207 -0.1197 -0.0723
11894W        W15492  14.766   3.760   6.404 -0.0351  0.0734  0.0132
11895W        W15493   8.519   1.534  16.366 -0.2215  0.2805 -0.1007
11896W        W15494  16.296   2.032  12.497 -0.0248 -0.2993 -0.5425
11897W        W15495   1.748   4.605   0.367 -0.0923  0.0944  0.2497
11898W        W15496   6.388  13.179  14.282  0.1614  0.0197 -0.0122
11899W        W15497  11.016  10.962  11.444 -0.1999  0.0498  0.0896
11900W        W15498  14.816  15.476  10.937  0.2704 -0.0044 -0.1491
11901W        W15499   3.155   0.971   9.299 -0.2113  0.1149 -0.1812
11902W        W15500   5.234   8.217   2.485  0.0324  0.0323 -0.0404
11903W        W15501   5.099   2.599   0.443  0.1770  0.4312 -0.1844
11904W        W15502   9.899  15.046   3.697 -0.0175  0.0159 -0.1161
11905W        W15503  13.682   9.054   4.743  0.0965  0.0050  0.0094
11906W        W15504   1.942   5.562  14.425 -0.2305 -0.1969 -0.1653
11907W        W15505   5.048   8.466   8.553 -0.2398 -0.2931  0.1586
11908W        W15506   9.235   8.624   0.966 -0.4232  0.0066 -0.1006
11909W        W15507   7.793  14.463   2.806 -0.3898  0.0660 -0.1499
11910W        W15508   6.780   2.065   5.789  0.0065 -0.0001 -0.0136
11911W        W15509   3.987  13.947  15.462  0.1461  0.0151 -0.0826
11912W        W15510   4.278  10.211   8.570 -0.0201  0.0428  0.3530
11913W        W15511  11.512   6.934   0.216 -0.0195  0.2473  0.3454
11914W        W15512   1.303  13.020   1.397 -0.1326  0.0960 -0.0779
11915W        W15513  16.317   3.645  15.031 -0.1120  0.1900 -0.0210
11916W        W15514   6.523   1.452  10.872 -0.0583 -0.1003 -0.0239
11917W        W15515   4.182  14.093   6.332  0.1080 -0.1468 -0.1960
11918W        W15516   1.346   0.866   5.538 -0.1500 -0.1929  0.1996
11919W        W15517   0.245   7.439  14.255  0.1272  0.1899 -0.1259
11920W        W15518   4.141   4.126   3.194 -0.1597 -0.0895  0.0440
11921W        W15519   2.780   9.574   5.321  0.0969  0.3150  0.3526
11922W        W15520  15.409   7.460  10.126 -0.0558 -0.1953 -0.2616
11923W        W15521  15.019   1.524   4.633 -0.0969  0.3545  0.1061
11924W        W15522   0.868  15.381  12.370 -0.3020 -0.1210 -0.1651
11925W        W15523  15.828   0.912  11.037  0.0950  0.1174  0.0080
11926W        W15524   5.586   7.589   8.069 -0.2345  0.1542  0.1951
11927W        W15525  15.400   5.134   3.636 -0.1059 -0.0578 -0.1510
11928W        W15526  15.924   6.651   5.881  0.4695  0.0480 -0.1418
11929W        W15527  11.706  14.089   3.649 -0.0031  0.3663  0.2754
11930W        W15528   0.488   7.801   3.287 -0.0746 -0.0328 -0.0928
11931W        W15529  10.910   8.703  10.691 -0.3639  0.3170 -0.2004
11932W        W15530  14.863  14.184  12.426  0.0084 -0.1593  0.1720
11933W        W15531   0.009  15.474   7.805  0.1039 -0.1194 -0.1633
11934W        W15532   7.366   9.046   6.698 -0.0620 -0.0026 -0.1491
11935W        W15533   5.932  10.972  13.344 -0.1775 -0.1597 -0.0039
11936W        W15534   8.171   8.833  15.627  0.1201 -0.5239  0.1356
11937W        W15535   1.347  11.022  15.200 -0.2305  0.1532 -0.3171
11938W        W15536   4.321   3.949  13.159  0.2695 -0.2680  0.0040
11939W        W15537   1.612   2.984   0.799  0.2782  0.0537 -0.2100
11940W        W15538  11.709   1.000  11.325 -0.1934  0.1812  0.1269
11941W        W15539  11.101   6.277   7.353 -0.1765 -0.1053 -0.1235
11942W        W15540   5.196   2.830  12.800  0.3515  0.1558 -0.0954
11943W        W15541   7.288   6.466   2.990  0.3503  0.1004 -0.1330
11944W        W15542  10.558   1.375   9.565 -0.1242 -0.1764  0.0268
11945W        W15543  11.146  13.250   2.231 -0.2107  0.0495  0.2914
11946W        W15544   2.271  15.540   6.241 -0.1452 -0.2825  0.1726
11947W        W15545   9.653  11.495   4.795  0.0683 -0.0466 -0.1511
11948W        W15546   3.146   8.620  12.013 -0.0575 -0.1165  0.2286
11949W        W15547   1.053  16.204  13.758  0.0930 -0.0917 -0.1562
11950W        W15548   1.482   0.339   6.813  0.0510  0.0386  0.1947
11951W        W15549   0.673   6.286   1.269 -0.1512  0.0475 -0.0136
11952W        W15550  12.782   9.469  15.933  0.1014 -0.0070  0.2791
11953W        W15551   6.818  11.512   6.685  0.1485 -0.1877  0.0420
11954W        W15552   6.281  14.656  15.917  0.0104  0.3987 -0.1137
11955W        W15553   4.019   9.429   5.601 -0.0629 -0.3780 -0.0851
11956W        W15554   7.514   0.199  14.249 -0.0681  0.0373 -0.1072
11957W        W15555   3.763   4.879  14.993  0.0333 -0.2144 -0.2306
11958W        W15556   8.965  14.826  15.790 -0.1252  0.1090 -0.0187
11959W        W15557  14.795   9.990   8.453 -0.2107  0.3119  0.0352
11960W        W15558   0.424  13.887   2.505  0.1528  0.0942  0.0645
11961W        W15559  13.532   7.346   8.742 -0.3671 -0.1856  0.1558
11962W        W15560  10.918  10.092   1.678  0.0886 -0.1611  0.0141
11963W        W15561   7.020  12.313   7.140  0.0353 -0.0347  0.0777
11964W        W15562  11.213  14.845  13.291  0.1923  0.1359 -0.4244
11965W        W15563   9.604   4.414  16.298  0.1531  0.0552 -0.1698
11966W        W15564   2.219  14.225  11.674  0.3638  0.0582  0.1503
11967W        W15565  10.309   0.775  15.430 -0.3294  0.2291 -0.0341
11968W        W15566   1.809   0.645  10.356 -0.0434  0.0391 -0.0160
11969W        W15567   5.806   1.653  15.236  0.4776 -0.0203 -0.0096
11970W        W15568   7.694   4.119  11.433 -0.2340  0.0989 -0.0043
11971W        W15569   2.508   8.051   8.942 -0.1910 -0.0314 -0.0149
11972W        W15570  10.479   6.933   1.195  0.0625  0.0997  0.0147
11973W        W15571   4.970  11.637   3.418 -0.1548 -0.2155 -0.0306
11974W        W15572   4.563  12.661  10.976 -0.0072 -0.5202 -0.0466
11975W        W15573  10.814   2.743  13.260  0.1362  0.0488 -0.2166
11976W        W15574   0.629   9.811  11.233 -0.0458  0.1846  0.1315
11977W        W15575   3.202   0.041   3.314 -0.2390 -0.0370 -0.1098
11978W        W15576  15.654   0.650  14.247  0.1339 -0.0537 -0.0398
11979W        W15577   2.904   7.405  14.757 -0.2827  0.4203 -0.0936
11980W        W15578  13.335   3.418   6.994  0.0520  0.3258  0.3402
11981W        W15579   1.840   8.990   9.718  0.2092 -0.0947  0.1143
11982W        W15580   5.178   7.523  14.977 -0.1328 -0.2693 -0.0703
11983W        W15581   2.419  15.948  15.774  0.0317  0.1111  0.1309
11984W        W15582  16.343   9.525  11.238  0.0697  0.0266 -0.2563
11985W        W15583   1.538   8.712   3.677  0.0515 -0.0179 -0.1140
11986W        W15584   3.892   1.975   4.463  0.0299 -0.0413 -0.2584
11987W        W15585   9.016   7.737  11.948 -0.1244 -0.1468  0.2665
11988W        W15586  13.641   2.162  13.468  0.1507 -0.0774 -0.0794
11989W        W15587  12.037  10.705  10.719 -0.1334 -0.1958  0.2786
11990W        W15588   2.196   6.284   2.298  0.0306  0.3028 -0.0623
11991W        W15589  14.996   5.065  15.813  0.1086 -0.0109 -0.0110
11992W        W15590  16.259   8.555   5.923 -0.1682  0.2316  0.1121
11993W        W15591   4.327  12.570   5.368 -0.3660  0.0368 -0.2473
11994W        W15592   9.787   8.832   5.512 -0.0726 -0.1149 -0.0593
11995W        W15593  14.364  10.668   3.789  0.2883 -0.1122 -0.0309
11996W        W15594  11.676   2.016   4.406  0.2208  0.1373  0.1120
11997W        W15595   4.565   0.065  11.274 -0.0745  0.2899 -0.0499
11998W        W15596   0.194   8.919  14.693 -0.2639  0.0435  0.0544
11999W        W15597  15.841   7.945   0.314  0.0817  0.0528  0.0347
12000W        W15598  14.844  11.036   8.200 -0.1913 -0.3888  0.3984
12001W        W15599  16.383  15.536   6.713  0.0044 -0.2013 -0.1620
12002W        W15600  11.378   3.692  11.120 -0.4578 -0.2018  0.0970
12003W        W15601  14.877   4.928  13.492 -0.1751 -0.0044 -0.1234
12004W        W15602  16.256   8.579   6.476  0.2601  0.0801  0.0409
12005W        W15603   1.032   5.966  10.530 -0.0727 -0.1632  0.0506
12006W        W15604   1.343  15.376   9.883  0.0168 -0.0716 -0.1944
12007W        W15605   8.413   6.451  10.904  0.2435 -0.1502 -0.3151
12008W        W15606   3.714   8.898   3.401 -0.0557 -0.0384 -0.2273
12009W        W15607   9.960   6.927   2.967 -0.0524  0.1725  0.0064
12010W        W15608   9.856   9.240   6.995 -0.1928  0.4378 -0.0516
12011W        W15609   5.897   4.519   3.142  0.1170  0.1892  0.4195
12012W        W15610  11.534  12.921  11.145  0.1856 -0.0639 -0.2501
12013W        W15611   9.775   4.287  10.946 -0.1286 -0.0283  0.0622
12014W        W15612  11.515   2.837  11.712  0.1695  0.0756  0.0369
12015W        W15613   8.057  14.413  12.686  0.0900 -0.1122  0.1411
12016W        W15614   9.425   0.239   4.934  0.1552  0.1755 -0.1062
12017W        W15615   9.283   0.691  13.978  0.0606 -0.1536  0.1137
12018W        W15616  10.513   7.805   1.584 -0.0131  0.0587  0.1239
12019W        W15617  14.379   5.557  10.225 -0.1875  0.2578  0.0721
12020W        W15618  15.280   2.064  12.332  0.3078 -0.0082 -0.0071
12021W        W15619   8.924  14.354  13.296  0.1550 -0.1478 -0.0583
12022W        W15620  12.619  14.796   8.576  0.1554 -0.2565 -0.1198
12023W        W15621  14.508   4.447   0.536 -0.3460 -0.1807  0.2702
12024W        W15622  11.059  15.408  10.793 -0.0234  0.0566  0.6005
12025W        W15623   0.433  14.935   9.873  0.0658  0.0082 -0.2234
12026W        W15624   3.412   6.065   9.437 -0.2819 -0.1581  0.0077
12027W        W15625   9.471   1.387   8.100  0.3256 -0.0008  0.1975
12028W        W15626   7.956  13.466   9.484  0.1613  0.4532  0.1036
12029W        W15627   8.869   1.877   3.798  0.2240 -0.0394  0.2276
12030W        W15628  12.166   2.419  12.761  0.0986  0.0157 -0.2121
12031W        W15629  11.456  12.991  11.626 -0.0726 -0.0182 -0.1849
12032W        W15630   2.313  10.305   4.934 -0.2111 -0.0622 -0.0929
12033W        W15631  12.223  15.614   1.305 -0.0643  0.2666 -0.2116
12034W        W15632  10.285  15.250   5.148  0.0190 -0.0571 -0.0593
12035W        W15633   7.466   0.985   9.727  0.1659 -0.0061  0.2027
12036W        W15634   3.532   0.119  12.482  0.0360 -0.1035  0.2072
12037W        W15635  12.478   5.663   1.137 -0.3468  0.0428 -0.1009
12038W        W15636   0.155  14.849  10.340 -0.0042 -0.2892  0.0147
12039W        W15637   5.508  12.793  14.469  0.0594  0.0290  0.1686
12040W        W15638  13.943   1.107   0.542 -0.0502  0.3421  0.1952
12041W        W15639  13.276   9.094   4.403 -0.2032  0.0113  0.0897
12042W        W15640   5.012   4.425  15.435  0.3096 -0.2768 -0.0511
12043W        W15641  15.996   4.480   8.675  0.0022 -0.0651  0.1276
12044W        W15642  11.353   6.369   8.376  0.1914  0.3348 -0.1595
12045W        W15643  11.981  13.105   0.358  0.1239 -0.0322 -0.1028
12046W        W15644   2.024   8.143   9.018  0.0467 -0.0349  0.2328
12047W        W15645  14.329  15.770  15.851 -0.3540  0.3472 -0.0376
12048W        W15646   1.174   5.363   9.741  0.0979  0.0444 -0.1161
12049W        W15647   7.480   4.810   1.955 -0.4389  0.2036  0.0294
12050W        W15648   0.479  10.279  10.117  0.3948 -0.3633  0.0213
12051W        W15649   0.555   8.641  14.523 -0.1720 -0.1676 -0.3016
12052W        W15650  13.146  14.367  12.233 -0.1360 -0.0853  0.3124
12053W        W15651   1.873   4.335   8.830 -0.0026  0.0175 -0.0726
12054W        W15652   2.927   7.251  13.743 -0.0501 -0.0311  0.1233
12055W        W15653   7.710  14.883   3.875  0.1182 -0.1307  0.1193
12056W        W15654   2.372   6.683   6.645 -0.0674  0.2420 -0.1239
12057W        W15655  14.254  13.020  13.283 -0.1929  0.3397 -0.2214
12058W        W15656  12.753   2.921   5.106  0.0132 -0.1390 -0.0902
12059W        W15657  13.514   4.685   3.253 -0.2060  0.0963 -0.0583
12060W        W15658   4.317  10.512  11.241  0.0720 -0.0953  0.0900
12061W        W15659  15.554  11.085   8.443 -0.2735  0.0895  0.0503
12062W        W15660   6.866   2.184   6.416 -0.1063 -0.2451 -0.4989
12063W        W15661   6.646   3.008   9.827 -0.1576 -0.0489  0.1470
12064W        W15662  11.083   7.557   6.416 -0.2480  0.4298 -0.2593
12065W        W15663  13.755   3.680   2.014 -0.0563  0.1851 -0.0125
12066W        W15664   2.841  10.179   8.625 -0.2221 -0.1668 -0.1069
12067W        W15665  13.729   2.237   3.568  0.2189 -0.1835  0.4883
12068W        W15666   4.865   8.329   7.731  0.0380  0.1334 -0.1480
12069W        W15667   0.363  12.066  14.006  0.1147 -0.0399 -0.1885
12070W        W15668   0.642   7.477   2.401 -0.0871  0.0632  0.4256
12071W        W15669  14.008   3.587   0.497 -0.1581  0.1358  0.0425
12072W        W15670   2.586  13.786   8.648 -0.2697 -0.3245  0.0419
12073W        W15671   6.680   0.388  10.622  0.3820 -0.3520 -0.0371
12074W        W15672  13.350   2.981  10.808 -0.2378 -0.2941  0.2995
12075W        W15673   1.927  13.839  15.036  0.1256 -0.0809 -0.1530
12076W        W15674   1.576   6.889   2.322 -0.3257  0.0763 -0.1066
12077W        W15675   5.695  11.513   1.089  0.0813  0.1493  0.0006
12078W        W15676  11.252   5.365  14.388  0.0961  0.0403  0.0308
12079W        W15677   8.969   3.897  14.209 -0.1051 -0.0246 -0.1155
12080W        W15678  15.394   9.748  15.948 -0.2576 -0.2523  0.2498
12081W        W15679   0.139   5.042   5.209 -0.4745  0.1855  0.3345
12082W        W15680   7.588  13.218  12.644 -0.2178  0.3107 -0.2891
12083W        W15681  11.982   8.273   1.108 -0.2530  0.0492 -0.2032
12084W        W15682  15.040  15.639   0.914  0.2050 -0.0628 -0.3105
12085W        W15683   4.651   9.644  10.455  0.2527  0.0751 -0.3403
12086W        W15684   5.804   6.346   5.576  0.0709 -0.1502 -0.2335
12087W        W15685   8.179   2.242   1.066 -0.1487 -0.1452  0.3694
12088W        W15686   3.692   5.285  10.379  0.1381  0.1360 -0.1324
12089W        W15687   6.326  12.630  10.979 -0.2439  0.1694  0.1084
12090W        W15688   1.056   6.777   5.912 -0.0701  0.2258  0.1009
12091W        W15689   6.656   1.199  15.280 -0.0875 -0.1631 -0.0896
12092W        W15690   3.083  10.480   7.041 -0.1836 -0.2068 -0.0624
12093W        W15691   0.358   5.077   1.033  0.0539  0.0756 -0.0747
12094W        W15692   2.750  13.924  14.457  0.3464  0.0567 -0.1304
12095W        W15693  11.756  14.546   0.965 -0.0671 -0.0525 -0.0556
12096W        W15694   3.775  11.500   6.171  0.2158 -0.3421 -0.0266
12097W        W15695   6.226  14.950   9.706 -0.0520 -0.0877  0.0763
12098W        W15696  14.380   4.223   3.486 -0.2861 -0.3018 -0.1714
12099W        W15697   9.145  11.099   2.618 -0.1190  0.4318  0.1525
12100W        W15698   0.752   6.357   0.719 -0.1748 -0.0723 -0.2607
12101W        W15699   7.288  12.309   0.152 -0.1132 -0.0044  0.2046
12102W        W15700  16.169  10.547  12.917 -0.1277 -0.1021 -0.1211
12103W        W15701  12.116  10.707   8.187  0.2796  0.2086 -0.1669
12104W        W15702   3.495   1.575   3.366  0.1466  0.1054  0.2783
12105W        W15703  14.457   4.753   3.654  0.0633 -0.0941  0.2325
12106W        W15704   2.493   4.494  15.522 -0.0416 -0.0140 -0.2278
12107W        W15705   4.030   7.818   6.787 -0.0558 -0.1156 -0.3587
12108W        W15706   9.452  13.063   7.238  0.2319 -0.0948  0.0015
12109W        W15707  13.596   0.183   2.401 -0.1836  0.0205 -0.0449
12110W        W15708   4.316   8.574   5.625 -0.2145 -0.0831 -0.3412
12111W        W15709  15.302  11.886  10.426 -0.2723  0.1904 -0.1004
12112W        W15710   3.726   7.451  10.735  0.3599 -0.0417 -0.0350
12113W        W15711  12.677   0.455  15.053 -0.2731 -0.0075  0.0684
12114W        W15712   6.442  11.232  12.987 -0.0055  0.4177 -0.0622
12115W        W15713   3.274   1.294  12.945 -0.1694 -0.0321 -0.0062
12116W        W15714   7.987   3.095  11.855  0.0596 -0.0146  0.1481
12117W        W15715   1.382  16.088  14.098 -0.1857 -0.0865 -0.2364
12118W        W15716   5.779  12.102   3.749  0.0023  0.1339 -0.0661
12119W        W15717   5.379   3.807  13.020  0.0699  0.2491  0.2621
12120W        W15718   6.364   3.829  10.828  0.3559  0.0049 -0.0466
12121W        W15719   5.809   5.596   3.500  0.0993  0.2536  0.1987
12122W        W15720   4.714   6.076   4.088 -0.3254  0.1301  0.1093
12123W        W15721   0.179   2.794   0.162 -0.0822  0.1156 -0.1994
12124W        W15722  12.390  13.007   7.735 -0.2465 -0.1017  0.1120
12125W        W15723  16.296  10.899  12.168  0.0727  0.0359  0.2017
12126W        W15724  12.999   4.746   9.621  0.0438  0.1200 -0.0020
12127W        W15725  15.010   1.426   3.470 -0.1133 -0.1751  0.2137
12128W        W15726   8.064  12.389   4.942 -0.1777  0.3227 -0.1479
12129W        W15727  13.404  12.891  15.023  0.0721  0.0313 -0.0078
12130W        W15728   2.426  12.762  14.414  0.0738 -0.2779  0.1823
12131W        W15729  14.245  11.948   3.983  0.0916 -0.2207 -0.2540
12132W        W15730   6.738   8.511  13.757  0.1158  0.4059 -0.0054
12133W        W15731   3.361  13.588   9.811  0.3888 -0.1661 -0.1667
12134W        W15732   9.992   4.521   9.227  0.2063 -0.2500  0.2127
12135W        W15733   8.084  11.944  11.863 -0.0790  0.1449 -0.0920
12136W        W15734  11.726   6.018   4.051  0.1459  0.1636 -0.0383
12137W        W15735  13.095  10.398   8.562  0.1095 -0.2010 -0.1160
12138W        W15736   9.454   2.443   3.184 -0.1820  0.3060 -0.0893
12139W        W15737  13.732  13.662   7.296 -0.1008  0.1511  0.1594
12140W        W15738  10.957  12.164  13.788  0.0377 -0.2209 -0.1099
12141W        W15739   6.440   4.578   0.577 -0.0142 -0.0676 -0.2077
12142W        W15740   6.571   2.709  14.184  0.0633 -0.2445 -0.2278
12143W        W15741   4.335  15.003  12.229  0.0216 -0.0547 -0.1805
12144W        W15742   6.762   8.480   7.448 -0.0521 -0.1294  0.2158
12145W        W15743  16.390   6.506   0.314  0.0560 -0.0005  0.0575
12146W        W15744   6.682   4.404   1.942  0.2082 -0.0960 -0.0328
12147W        W15745   3.588  12.994   6.009 -0.1214 -0.2655  0.0112
12148W        W15746   9.247  13.803   7.092 -0.1492 -0.1133  0.0464
12149W        W15747  12.560   0.078   4.712 -0.0119  0.1649 -0.2012
12150W        W15748  14.370  14.096  10.928  0.1722 -0.1207  0.3192
12151W        W15749  14.027   4.994   1.736 -0.1012  0.0124 -0.1065
12152W        W15750   9.287   4.522  13.896  0.0094  0.1545  0.0915
12153W        W15751   0.612   3.790   5.477  0.0468 -0.1375  0.4858
12154W        W15752   9.035   9.966   2.237  0.2773 -0.0456  0.0687
12155W        W15753  12.577   3.189   6.544 -0.1791 -0.2030 -0.1662
12156W        W15754   3.546  15.313  14.270  0.0729  0.0880 -0.0769
12157W        W15755   1.195   2.970   1.745  0.2330  0.1221 -0.1497
12158W        W15756   0.501   6.715  12.319 -0.0548 -0.2509  0.2851
12159W        W15757  11.297  13.394  11.923 -0.0857 -0.2622  0.1928
12160W        W15758   0.320  15.985  14.599 -0.2648 -0.3233 -0.0535
12161W        W15759  14.007  10.931  13.108 -0.0963  0.1370 -0.3907
12162W        W15760   8.370  12.658  13.868  0.3033  0.1316  0.1816
12163W        W15761  15.291   5.635   5.502 -0.2981  0.1461  0.2037
12164W        W15762   5.914   8.901   6.561  0.1573  0.2007  0.3332
12165W        W15763   7.705   5.991   8.115  0.3461 -0.1413 -0.2461
12166W        W15764   0.024   0.385  13.224  0.1641  0.1864 -0.0973
12167W        W15765   6.396  11.285   5.834 -0.0345  0.0934 -0.1092
12168W        W15766  11.485   1.327   4.951 -0.0305 -0.3364 -0.2641
12169W        W15767   7.822   1.652   6.516 -0.3567 -0.0032 -0.0372
12170W        W15768   9.492   7.942   1.689 -0.1327 -0.0348  0.2213
12171W        W15769   3.766  14.358  10.209  0.2128 -0.2850  0.1542
12172W        W15770  16.291   3.368  11.721 -0.1729 -0.1967  0.0857
12173W        W15771   3.775   4.504   2.945  0.0275  0.3898 -0.1430
12174W        W15772  12.064  13.959   5.620 -0.0561 -0.0008  0.0795
12175W        W15773   0.496  15.088   3.994  0.1527 -0.3300 -0.0013
12176W        W15774  15.196   4.102  12.492 -0.0759 -0.0663 -0.0456
12177W        W15775   8.498  15.303   9.211  0.3005  0.0591  0.1221
12178W        W15776   7.167  11.868  14.430  0.0084  0.0088  0.0896
12179W        W15777  16.141  15.941  15.413 -0.2056  0.0737 -0.2317
12180W        W15778  10.045   1.312   1.716 -0.0872 -0.2402  0.0649
12181W        W15779   7.988   8.039   1.461 -0.1219 -0.3085  0.0062
12182W        W15780   9.634  13.076  13.202 -0.1572 -0.2871 -0.1889
12183W        W15781   9.212  16.173   5.256 -0.0374  0.1166  0.4464
12184W        W15782   5.314  15.671  12.719  0.2148 -0.1012 -0.0614
12185W        W15783  14.277  12.170   6.935 -0.0042 -0.2091  0.1797
12186W        W15784  10.039  13.364  12.314  0.1863 -0.0036  0.3155
12187W        W15785  10.971  10.006   3.167  0.1489 -0.0314  0.0187
12188W        W15786  10.937  10.094   6.465 -0.0290  0.2410  0.0547
12189W        W15787   0.140   6.303  13.457 -0.0814  0.0544  0.4572
12190W        W15788   5.715   4.338   0.168 -0.1338 -0.0882  0.1237
12191W        W15789  14.226   4.906   7.634 -0.1701  0.0059  0.0432
12192W        W15790   4.613  10.968   2.250  0.0207  0.0908  0.0114
12193W        W15791   8.319  16.030  13.374 -0.1680 -0.0858  0.0824
12194W        W15792  10.670   7.532   9.360 -0.4094  0.2833 -0.1306
12195W        W15793  10.145   3.942  13.428 -0.2512 -0.1248  0.0863
12196W        W15794  13.971  11.895  13.428  0.0957 -0.1080 -0.0292
12197W        W15795   4.765   2.263  15.537  0.0695  0.1029 -0.0285
12198W        W15796   7.900  12.131   6.321  0.2359  0.1418  0.2909
12199W        W15797   6.315   0.328   3.282 -0.0237 -0.0523 -0.1228
12200W        W15798   8.096   9.398   5.481  0.0575  0.1685  0.1652
12201W        W15799  14.494   3.266   4.106 -0.1110  0.0077 -0.1101
12202W        W15800  16.157  11.838   5.294  0.0915  0.0003  0.1017
12203W        W15801   6.632  10.136   8.490  0.1300 -0.0347 -0.2063
12204W        W15802  13.640  13.650   1.230 -0.0507 -0.0730 -0.0068
12205W        W15803  15.780  10.776  12.722  0.1052  0.2804 -0.2028
12206W        W15804   6.172   3.466   9.789 -0.0803  0.2420  0.0463
12207W        W15805  11.589   7.489   9.937  0.1870  0.1590  0.1576
12208W        W15806   0.491   6.355  14.769 -0.0883 -0.3907 -0.1322
12209W        W15807  15.520  13.097  14.940 -0.0057 -0.0400  0.1206
12210W        W15808   8.307   9.406  14.866  0.0972 -0.1170  0.1458
12211W        W15809  13.296   1.258  10.426 -0.1598 -0.1797  0.3807
12212W        W15810   8.328   5.014   7.309 -0.2437 -0.2418  0.0705
12213W        W15811  14.219   7.967   4.854  0.4026  0.1227 -0.1474
12214W        W15812  13.067   3.359   2.348 -0.0050 -0.1313  0.1412
12215W        W15813  13.489  13.775   0.733  0.1012 -0.1897 -0.1989
12216W        W15814  10.717   4.450   6.155 -0.3304  0.1199  0.1889
12217W        W15815   9.380   3.946   3.930  0.3691  0.0259 -0.0954
12218W        W15816   7.019  11.843  10.588 -0.1281 -0.2238 -0.3047
12219W        W15817   1.672   4.521   5.710  0.3777  0.4770  0.1811
12220W        W15818   3.240   1.829   9.299  0.1589  0.2701 -0.2635
12221W        W15819   6.605   1.047   8.845  0.0619 -0.0153  0.1612
12222W        W15820   5.163  12.935   6.656  0.0181  0.1497  0.0717
12223W        W15821   1.796   0.179  15.715  0.0920  0.2635  0.0271
12224W        W15822  16.171   0.555  11.090  0.4890 -0.1772 -0.0030
12225W        W15823  13.732   2.764  15.686  0.0188 -0.1266 -0.0772
12226W        W15824   9.194   7.180  10.452  0.0462  0.0803 -0.1015
12227W        W15825  10.324   8.672   0.678  0.0925 -0.1196 -0.0425
12228W        W15826   0.061   4.083  10.799  0.0790  0.0762  0.1854
12229W        W15827  10.399   5.968   4.836 -0.0014  0.0614 -0.0045
12230W        W15828   8.652  15.811   9.366 -0.0417  0.2116 -0.0446
12231W        W15829   4.157   5.483  10.206  0.0361 -0.1110  0.2544
12232W        W15830   6.740   3.613  14.580  0.0486  0.4551 -0.0049
12233W        W15831   6.564   9.378   7.019 -0.1117  0.3183  0.0262
12234W        W15832  13.944   3.812   5.170  0.0752  0.0766 -0.0513
12235W        W15833   0.274  15.699   1.299 -0.0271  0.1829  0.2222
12236W        W15834   1.107  14.968   6.082  0.0896 -0.0565  0.1096
12237W        W15835  15.203  16.309   8.313 -0.0855  0.0542 -0.0723
12238W        W15836  10.284  13.368   7.072 -0.2665  0.0635  0.1777
12239W        W15837   1.510   2.936   9.374 -0.3367  0.1272  0.0883
12240W        W15838  13.463   6.762   8.627  0.1055  0.0652  0.0010
12241W        W15839   6.944   9.227  11.450  0.3634 -0.2972  0.0421
12242W        W15840   3.564  13.991  10.784  0.1529 -0.0330  0.1659
12243W        W15841   4.686   8.668  14.001 -0.1572  0.0525  0.1216
12244W        W15842   1.271   3.945  10.036 -0.0942 -0.2891 -0.0399
12245W        W15843   4.009   0.258   7.864 -0.1178 -0.0307  0.2032
12246W        W15844  11.511  11.789   8.467  0.0087  0.0024  0.4058
12247W        W15845  13.516   1.360  11.821 -0.2003  0.0890  0.2542
12248W        W15846  14.104  12.344  11.260  0.3343 -0.0635 -0.0622
12249W        W15847  15.150   0.107  15.938 -0.1953  0.0118 -0.0700
12250W        W15848   0.687   1.419   9.713  0.0392 -0.0646 -0.1664
12251W        W15849   6.133   3.693  15.857 -0.1374  0.0603 -0.0692
12252W        W15850   5.291   2.814   5.209  0.2433  0.0574  0.3269
12253W        W15851   9.764   2.906   9.443 -0.1458 -0.1827 -0.3447
12254W        W15852   4.851   1.333   8.468 -0.2376 -0.2002  0.1399
12255W        W15853   5.563   6.397  15.082  0.3621  0.1428 -0.1257
12256W        W15854  12.887  14.779   7.174  0.0987  0.0828 -0.4750
12257W        W15855  13.628  14.977   0.434 -0.0185 -0.1381 -0.1089
12258W        W15856   8.305   8.449   2.974 -0.2275 -0.1195  0.2983
12259W        W15857   1.159  12.639   6.131 -0.1315  0.0236 -0.0467
12260W        W15858   2.426  10.121   7.246  0.3650 -0.0515  0.0061
12261W        W15859   4.155   6.748  13.585 -0.2967 -0.0786 -0.0323
12262W        W15860   9.109   8.947   1.365  0.0526 -0.0202  0.1483
12263W        W15861  13.956   4.183   4.796 -0.1250 -0.0033 -0.0652
12264W        W15862   3.298   8.334   2.736 -0.1287  0.0680 -0.2580
12265W        W15863   5.629   3.417   0.229  0.4031 -0.0344 -0.0140
12266W        W15864  11.754   7.749   2.491 -0.0889  0.1991  0.0430
12267W        W15865   1.748   8.608   2.653 -0.2014 -0.0556  0.2533
12268W        W15866  13.253   1.335   2.965  0.1211 -0.0789  0.0166
12269W        W15867   6.966   6.121   9.509 -0.1021 -0.1994  0.1803
12270W        W15868   4.676   8.073   8.912  0.1596  0.0447 -0.0221
12271W        W15869   8.236   7.141   9.296 -0.0792 -0.0114 -0.2345
12272W        W15870   0.831  15.861   7.036 -0.2991  0.0188 -0.0086
12273W        W15871   2.578   0.758   8.301  0.2626  0.4927  0.0305
12274W        W15872  12.932   6.565  13.618 -0.1703  0.2619 -0.2448
12275W        W15873  15.891  13.352   5.790 -0.1269  0.4585  0.1110
12276W        W15874   3.078  13.878  13.599  0.1060  0.3261  0.1359
12277W        W15875   5.366   6.707   4.201 -0.2707  0.2419 -0.0093
12278W        W15876  14.605  13.774   3.268 -0.2392 -0.2065 -0.1302
12279W        W15877   4.257   9.322  15.335  0.2086  0.0402 -0.3006
12280W        W15878  11.067   1.516   1.894  0.0012 -0.0003 -0.0722
12281W        W15879  15.990   6.483   8.716  0.1074  0.0789 -0.3112
12282W        W15880   4.818  14.489  13.284 -0.0373  0.1928 -0.2376
12283W        W15881   6.086   2.306   4.940 -0.1397  0.0379  0.0750
12284W        W15882   8.310   6.785  12.598  0.0165  0.1126 -0.0826
12285W        W15883   1.840  15.468  14.625  0.2113  0.0244 -0.3170
12286W        W15884  11.043   2.561  14.525  0.3000  0.0502 -0.0811
12287W        W15885   2.689   7.035   6.502 -0.0743  0.0793 -0.0219
12288W        W15886  13.002  12.364   9.023  0.3161  0.2171 -0.0030
12289W        W15887  15.502   4.995   7.213  0.0275  0.0946  0.0243
12290W        W15888   6.748  12.229   2.421 -0.0282  0.2125  0.1330
12291W        W15889  10.209   6.052   6.971 -0.0311  0.0325  0.3490
12292W        W15890  13.678  15.147  14.799  0.2774  0.1770  0.0214
12293W        W15891  10.257  15.178  15.466  0.3030  0.1172 -0.2253
12294W        W15892   7.729   8.181   8.436 -0.0966 -0.2364 -0.0784
12295W        W15893  12.513  10.227   7.478 -0.4307 -0.3111 -0.0609
12296W        W15894  14.701  16.273  12.799 -0.0860  0.1152  0.1871
12297W        W15895   3.385   2.119  12.108 -0.1195  0.2366 -0.0455
12298W        W15896   8.024   6.778   0.929 -0.1716  0.1417 -0.0873
12299W        W15897  12.327  10.338  11.188 -0.0739  0.0371 -0.1780
12300W        W15898  10.946   4.741   9.775 -0.0039  0.4326 -0.1334
12301W        W15899  13.620   6.851  13.111 -0.0562  0.0793  0.0093
12302W        W15900  15.467   1.975  13.697 -0.0378  0.2607  0.0894
12303W        W15901   7.025   8.786   0.943  0.0060  0.0388 -0.1948
12304W        W15902  12.389  16.126   6.289  0.0403 -0.2722  0.2760
12305W        W15903  13.231   3.791   5.292  0.2073  0.0405 -0.0999
12306W        W15904   9.051  12.451   2.520 -0.2037  0.3538 -0.3814
12307W        W15905   8.415   7.109   7.960 -0.0597  0.2145  0.0731
12308W        W15906   9.271  13.909   1.242 -0.0809 -0.1275  0.1715
12309W        W15907   8.006   8.537  12.425 -0.2516  0.1051  0.1926
12310W        W15908   9.922   2.489   8.938  0.0022 -0.2698  0.3642
12311W        W15909   3.776   3.019  13.081  0.1741  0.1622 -0.2369
12312W        W15910  10.792   0.739  10.257  0.2265  0.0567  0.0055
12313W        W15911  13.111   0.569   4.179 -0.1472 -0.1290  0.1166
12314W        W15912  10.079   6.535   2.664  0.0616  0.0758  0.1163
12315W        W15913   1.565   8.686   9.355  0.0531  0.3206  0.1696
12316W        W15914   4.719   3.261  12.192  0.1916 -0.0261 -0.2217
12317W        W15915   3.103   9.319  14.839  0.2053  0.2587  0.1951
12318W        W15916   7.663   2.808   2.614  0.0809  0.0349 -0.0224
12319W        W15917  10.654  11.944   0.017  0.0654 -0.4448  0.1203
12320W        W15918   3.843   5.658   1.986  0.0267  0.0340  0.0824
12321W        W15919  11.542   8.466  14.912 -0.0577  0.0289 -0.1471
12322W        W15920   0.381  15.628   6.372 -0.0745  0.2463 -0.3418
12323W        W15921  15.646   1.864   7.611 -0.0407  0.0279 -0.0205
12324W        W15922   2.743  15.579   8.696  0.0349 -0.0735 -0.1292
12325W        W15923   5.827  15.173   6.987  0.5583 -0.1679  0.0302
12326W        W15924  12.112  13.399   7.535 -0.1907 -0.3593  0.0108
12327W        W15925   3.442   0.318   6.969  0.0613  0.0824 -0.1451
12328W        W15926   5.205   5.897  15.550 -0.3596 -0.2365  0.1627
12329W        W15927  10.154  15.483   9.363  0.0230  0.0159 -0.1490
12330W        W15928   8.125   1.965  10.924  0.2708  0.2577  0.0644
12331W        W15929   5.588   3.614  14.790  0.0708  0.4171 -0.0559
12332W        W15930  12.902  14.128   5.171  0.0952 -0.0564  0.2092
12333W        W15931   4.765   0.903   8.097  0.0755 -0.0877 -0.0220
12334W        W15932  14.446   2.373  11.988  0.0296  0.0197 -0.4294
12335W        W15933   2.630   8.505   7.704 -0.1278 -0.0102  0.1309
12336W        W15934  12.232   5.970   1.428  0.2510  0.1708  0.0847
12337W        W15935   2.022  14.642  13.764 -0.0510  0.1482 -0.1975
12338W        W15936   1.334  13.648  10.664  0.1392  0.4596 -0.3207
12339W        W15937   4.918   8.774  10.868  0.2848 -0.0820  0.0818
12340W        W15938  16.143   2.648  15.091  0.0394  0.1494 -0.1008
12341W        W15939   8.677   2.519  14.182 -0.0384 -0.1988 -0.1835
12342W        W15940  13.790  14.826   7.970 -0.1797 -0.1401 -0.0831
12343W        W15941   1.302  14.521   9.004  0.2690  0.3044 -0.0329
12344W        W15942  10.265   6.543   0.406 -0.0483 -0.2081  0.1044
12345W        W15943   7.869  11.644   2.764 -0.2294  0.0389  0.0048
12346W        W15944  12.385   0.611   5.835  0.1723 -0.1238 -0.0293
12347W        W15945  16.292  10.761   9.577  0.0748  0.1821 -0.1849
12348W        W15946  11.786   4.777   9.421 -0.1886 -0.0844 -0.3137
12349W        W15947  14.130  16.331  13.370 -0.0354  0.2059  0.1389
12350W        W15948   3.615   3.424   5.907  0.0947 -0.3686 -0.0919
12351W        W15949  10.179   6.294  16.107  0.2492 -0.2111 -0.0917
12352W        W15950   0.867   9.334   8.131  0.1942  0.1814 -0.0325
12353W        W15951  15.480   2.486  13.483 -0.3292  0.0166  0.0319
12354W        W15952   6.511   0.293  12.285  0.1519  0.0586 -0.2092
12355W        W15953  11.248   0.084  16.062  0.3566  0.1354 -0.1943
12356W        W15954  10.636   3.324  10.680 -0.0056 -0.0112  0.0005
12357W        W15955  16.080   9.655   1.944 -0.0115  0.3996 -0.4020
12358W        W15956  16.108   3.363   7.961 -0.4732  0.1569 -0.2267
12359W        W15957   0.159   6.501   3.132 -0.1334  0.2604 -0.0286
12360W        W15958  15.180   6.785   0.229  0.1007 -0.0980  0.1528
12361W        W15959   8.289   8.130  14.350 -0.0237 -0.0317 -0.0853
12362W        W15960   6.133   7.979   0.764  0.1211 -0.1772  0.1186
12363W        W15961   9.835   4.316   7.750  0.0626 -0.3251 -0.0769
12364W        W15962   0.507  11.129   4.815 -0.0111  0.0119  0.0725
12365W        W15963   3.556  12.183   0.207  0.4125 -0.1660 -0.3127
12366W        W15964  13.442  13.491   8.368  0.0419 -0.3047  0.1313
12367W        W15965   4.072  10.241   8.079 -0.1527  0.1501  0.4680
12368W        W15966   0.701  13.576  14.215  0.1215  0.0387  0.3648
12369W        W15967   2.669  13.994   1.037  0.1103 -0.0820  0.2475
12370W        W15968   0.909   6.235   4.743 -0.0214  0.1422 -0.1931
12371W        W15969   6.419   5.844  16.019  0.2452 -0.2569 -0.1355
12372W        W15970  11.525   9.653   8.977 -0.0853 -0.4360 -0.2934
12373W        W15971  12.442  15.989   2.178  0.0190 -0.0296  0.1496
12374W        W15972   2.289   1.240   7.391 -0.0265 -0.4096  0.1907
12375W        W15973  11.608   7.158   8.557  0.3335 -0.0273  0.0316
12376W        W15974   7.738  16.382   8.632  0.1993  0.2552 -0.0007
12377W        W15975   1.719  15.413   0.459  0.0247  0.0050 -0.0483
12378W        W15976   1.548   4.422  15.749  0.2932  0.0117  0.1783
12379W        W15977  15.092  16.194  14.659 -0.2892  0.2506 -0.0138
12380W        W15978  14.633   4.890  15.444  0.2307  0.1785  0.2546
12381W        W15979   8.880  14.202   1.357  0.1394  0.2139 -0.1375
12382W        W15980   2.931  11.989  10.606  0.1466 -0.1954  0.1141
12383W        W15981   5.333   7.977   5.058 -0.1997  0.3010  0.4028
12384W        W15982   2.694   5.826  14.624  0.2351 -0.0562  0.1318
12385W        W15983   6.505  13.852  16.041  0.2232  0.0017 -0.3769
12386W        W15984   0.380   3.157   3.871  0.1189 -0.2606  0.1674
12387W        W15985   9.673  14.209   7.183 -0.1151  0.0928 -0.3295
12388W        W15986   8.013   4.877  13.037 -0.1290  0.0865 -0.2448
12389W        W15987   1.566  13.021  15.202  0.0251 -0.0558 -0.0782
12390W        W15988  14.336   0.747   6.046  0.1604  0.3566 -0.2935
12391W        W15989   0.685   0.010  12.443  0.1647  0.0803 -0.4488
12392W        W15990  13.541  10.810  12.752  0.1656  0.0013 -0.2149
12393W        W15991   3.500   3.716   7.212 -0.1407  0.3338  0.2461
12394W        W15992   4.042   1.506   4.620  0.1289 -0.2457 -0.1498
12395W        W15993   7.005   4.444   9.848  0.1809 -0.0887 -0.4143
12396W        W15994   8.717   7.186   2.177 -0.0653  0.3382 -0.0743
12397W        W15995  12.831   9.150  12.363  0.2863 -0.2457 -0.0367
12398W        W15996   1.789   6.302   7.314 -0.0111 -0.1596 -0.2046
12399W        W15997   3.645  11.355  15.247  0.0720  0.0926  0.2154
12400W        W15998   4.036   7.806   5.394 -0.0890 -0.0782  0.2864
12401W        W15999  15.826  10.550   7.206 -0.3310 -0.0927 -0.2291
12402W        W16000   5.537   6.461   6.521  0.0948  0.1889 -0.0041
12403W        W16001  14.632   2.038  14.494  0.4166 -0.0081  0.2773
12404W        W16002  15.308  13.164  14.496  0.0994  0.1209  0.0575
12405W        W16003   3.077  13.611   0.098 -0.1830 -0.0000 -0.0708
12406W        W16004   9.850   3.050  10.390  0.2040 -0.1881  0.0614
12407W        W16005  13.306   5.066   2.480  0.0502 -0.0852  0.1941
12408W        W16006  14.572   5.253  14.862  0.3740  0.1491  0.2813
12409W        W16007  10.428  13.055   6.261  0.1884 -0.1404 -0.0737
12410W        W16008   9.107  10.635   7.686 -0.3194  0.1824  0.3201
12411W        W16009   8.608   3.981  15.194 -0.1296  0.0801  0.3055
12412W        W16010  10.462  15.664   8.805  0.0249  0.3787  0.2070
12413W        W16011  14.293  16.210  14.988  0.1079 -0.3916 -0.3062
12414W        W16012   6.372  11.758  10.766 -0.2747  0.1730 -0.2129
12415W        W16013   4.973   3.969   0.216  0.2434  0.1642 -0.2242
12416W        W16014   7.221  15.131   7.707  0.0071 -0.0152  0.4690
12417W        W16015   9.581   4.833   2.708  0.0029  0.0374  0.0747
12418W        W16016   9.566  12.442  15.087  0.2306  0.0003 -0.1758
12419W        W16017  15.372   9.352  15.581 -0.1908  0.2590 -0.2933
12420W        W16018  11.597  14.161   3.078  0.2054 -0.0823 -0.0055
12421W        W16019   0.065  11.169  14.978 -0.1611  0.0274  0.1692
12422W        W16020  12.280   4.179   3.404 -0.1594 -0.2105 -0.3242
12423W        W16021  11.020   9.272   6.940  0.1892  0.1099  0.0812
12424W        W16022  15.516   2.530   1.172 -0.3599  0.0079 -0.0249
12425W        W16023   1.330   5.749   1.829 -0.0851 -0.1359 -0.0602
12426W        W16024  12.235   3.392   2.190 -0.3487 -0.0278  0.0169
12427W        W16025   5.567  13.088  12.804 -0.1078 -0.1036  0.1820
12428W        W16026   8.157  13.839  11.160 -0.0647 -0.0278 -0.3238
12429W        W16027  10.433   9.710  11.918 -0.4570  0.1195  0.0869
12430W        W16028  12.324   7.847   1.269 -0.2128  0.0664 -0.0248
12431W        W16029  16.216  13.510  12.997 -0.0663 -0.2543 -0.3373
12432W        W16030   1.354  11.295   8.933  0.0182  0.0583 -0.2007
12433W        W16031  11.016   5.805   1.863  0.2164  0.0231 -0.0181
12434W        W16032   0.700   1.537   2.115  0.0900 -0.1105  0.0360
12435W        W16033  15.266   2.579   8.044  0.3387  0.1917  0.0653
12436W        W16034   3.731  13.224   6.677  0.0635 -0.0172 -0.2012
12437W        W16035   5.774   1.292  11.321 -0.0644  0.0537 -0.1534
12438W        W16036  14.038  14.259  14.105 -0.3930 -0.0803 -0.0117
12439W        W16037   3.583   6.222   8.925  0.0925  0.2236  0.1080
12440W        W16038   5.528   6.237  13.363  0.0172 -0.1574  0.1902
12441W        W16039  15.561  14.468  10.456  0.1246 -0.1736  0.2357
12442W        W16040   6.792   9.702  12.562 -0.2975 -0.2382 -0.0441
12443W        W16041   3.968  16.077  13.691  0.4249 -0.1512  0.1476
12444W        W16042  10.768  10.045  15.135  0.0907 -0.1565 -0.0021
12445W        W16043   1.112   9.302  11.614 -0.0658 -0.1295 -0.0254
12446W        W16044   6.580  14.276  10.140  0.1006 -0.1171 -0.1556
12447W        W16045   6.859  11.887   4.707  0.1290 -0.1327  0.1367
12448W        W16046   6.541   0.040   2.295 -0.1253  0.0490  0.1532
12449W        W16047   4.414   4.171  11.337  0.1786 -0.0843  0.0597
12450W        W16048   2.257  12.771   8.833 -0.1975 -0.1168  0.0414
12451W        W16049  11.637  13.155  15.955 -0.0916 -0.0678  0.3481
12452W        W16050  13.695   6.811  15.345  0.0565 -0.0004 -0.2169
12453W        W16051   7.185   4.528  14.778  0.3739 -0.1274 -0.0770
12454W        W16052   1.533   6.167   1.580  0.3414 -0.1541 -0.1003
12455W        W16053  13.336  11.018   4.560  0.2626 -0.0689  0.1017
12456W        W16054   3.835   2.085   1.491 -0.1019  0.0979 -0.1299
12457W        W16055   4.868  10.427  12.843 -0.1608  0.1487  0.0959
12458W        W16056   6.829  14.666   5.924  0.0148 -0.1333  0.0331
12459W        W16057  11.404  16.201  11.388 -0.2358  0.2397 -0.3269
12460W        W16058   2.754  13.801   7.834 -0.0408  0.2028 -0.1337
12461W        W16059  14.498  11.514   3.872  0.1631  0.2948  0.3819
12462W        W16060   8.637   4.569  10.563  0.2303 -0.2089 -0.0355
12463W        W16061  10.028   9.640   7.388 -0.1403 -0.0275 -0.0338
12464W        W16062   7.926   0.303   1.437  0.4571 -0.0360 -0.1624
12465W        W16063  12.682  12.034   7.655 -0.0618 -0.0345 -0.0259
12466W        W16064   8.662   2.982  13.166 -0.1696 -0.0328 -0.1489
12467W        W16065  14.433   5.086   1.928 -0.2978  0.3470  0.2521
12468W        W16066   1.897   2.148   6.305 -0.0229  0.2642 -0.2885
12469W        W16067  14.431   7.390   8.504  0.2408  0.0431  0.0781
12470W        W16068   9.444   5.518  10.609  0.3533 -0.2523 -0.1318
12471W        W16069   7.936   3.673  12.363 -0.3486  0.3766 -0.1268
12472W        W16070  14.900   7.530   0.349 -0.1445 -0.2191  0.1030
12473W        W16071   7.699  14.070   6.826  0.0300  0.2652  0.0970
12474W        W16072   4.714  13.744  15.951  0.2733 -0.0369  0.0299
12475W        W16073   3.936  12.925  14.304 -0.0319 -0.1001  0.1207
12476W        W16074  12.779   3.492   3.946  0.0077 -0.0968  0.0479
12477W        W16075   7.628   7.860  14.660  0.0630  0.0827  0.0775
12478W        W16076   9.817   6.304  13.669  0.0531  0.2049  0.2524
12479W        W16077  14.546   6.149   9.821 -0.0377  0.2061 -0.1008
12480W        W16078  13.200   3.474  14.326 -0.1913  0.0705  0.0327
12481W        W16079  11.064  10.524   2.317 -0.0831  0.0988  0.0495
12482W        W16080   7.143  12.753   3.307  0.2491  0.1636 -0.1286
12483W        W16081   1.486   5.840  15.614  0.1316 -0.3202 -0.1387
12484W        W16082  13.858  12.566   9.243  0.0152 -0.0423  0.2888
12485W        W16083   2.423   5.584   7.738 -0.0015 -0.0820  0.0205
12486W        W16084  15.742   9.753   8.185 -0.1149  0.3553 -0.0469
12487W        W16085   2.965  14.344   7.957 -0.0207 -0.0997 -0.2733
12488W        W16086  14.943  12.647  13.923  0.1686 -0.2693 -0.4375
12489W        W16087  11.943   1.885   3.501 -0.3118  0.0607  0.4983
12490W        W16088  11.098  13.168  15.359  0.4221  0.3009 -0.1949
12491W        W16089   8.550   0.518   0.275 -0.2033 -0.1350 -0.4035
12492W        W16090   5.203  10.184  10.043 -0.2591 -0.3144 -0.0721
12493W        W16091   2.382   2.134   5.623  0.0756 -0.3345  0.2596
12494W        W16092  13.939   3.173   8.787 -0.2087  0.0864  0.1428
12495W        W16093  10.817   5.211  12.721  0.0004 -0.2518  0.1550
12496W        W16094   7.060  13.056   8.288 -0.0685  0.0187  0.2388
12497W        W16095  15.388   0.236  15.463  0.0542  0.1768  0.2031
12498W        W16096   0.573   2.000  16.106  0.3942 -0.1324  0.1457
12499W        W16097  12.328  11.693  14.890 -0.2295  0.1256  0.0884
12500W        W16098   1.248   9.425   0.974  0.2268 -0.0015  0.1165
12501W        W16099   4.711  13.119   2.133 -0.0797  0.1265 -0.0200
12502W        W16100  14.747   7.440   5.376 -0.2785  0.0339  0.0327
12503W        W16101  11.476   3.927   9.806  0.3552  0.1729  0.1403
12504W        W16102  14.578   7.575  16.270  0.1440  0.0519 -0.2017
12505W        W16103   8.135  14.813  13.367  0.1753 -0.1356 -0.0252
12506W        W16104   4.178   6.354   7.635 -0.1068 -0.0714  0.1602
12507W        W16105   9.674  11.588  14.602 -0.1093  0.1514 -0.1306
12508W        W16106   7.513   6.604   5.843 -0.2710  0.1852  0.2374
12509W        W16107   8.968   5.780  16.119  0.1268 -0.0088  0.1251
12510W        W16108   8.109   7.158   4.345 -0.2032  0.0289 -0.3792
12511W        W16109  10.398   8.722   4.568 -0.2233 -0.0913 -0.1106
12512W        W16110   8.645   8.309  12.990  0.1832  0.2007 -0.1437
12513W        W16111   9.102   3.455   0.546  0.3415 -0.0592  0.4074
12514W        W16112  16.259   1.093  12.638 -0.0691  0.0157  0.2717
12515W        W16113  14.799   4.130   3.312 -0.0182 -0.0734  0.1823
12516W        W16114   4.666  11.929   7.126  0.1958  0.2071 -0.4689
12517W        W16115  10.757   2.224   0.820  0.0532  0.1571  0.2729
12518W        W16116   1.079   5.971  14.108 -0.4280 -0.0194 -0.2281
12519W        W16117   0.473   1.315   3.157 -0.0407  0.0567 -0.3434
12520W        W16118  15.626  10.601   0.225  0.0095 -0.3308  0.1622
12521W        W16119   2.123   7.283   2.917 -0.1584  0.0572  0.0663
12522W        W16120  14.063  13.226  12.235  0.2834  0.0282  0.1377
12523W        W16121  12.776   3.558   6.164  0.0115 -0.1112  0.4114
12524W        W16122   6.673  14.024  14.220 -0.0593 -0.3267  0.0538
12525W        W16123   6.436   8.576   5.612 -0.1171  0.0237 -0.1216
12526W        W16124   0.206  13.516  13.866  0.0315  0.3085  0.1160
12527W        W16125   8.399  12.469   8.107  0.0035 -0.1327 -0.1955
12528W        W16126  13.426   1.333   0.373 -0.4115  0.0914  0.0502
12529W        W16127  16.033   6.277   0.763 -0.3351  0.0335  0.1425
12530W        W16128  13.529   5.822   1.701  0.1609  0.0970 -0.0686
12531W        W16129   9.223   2.936   5.323  0.2103  0.2690 -0.0913
12532W        W16130   8.245   5.964   2.519 -0.1481  0.0603  0.0972
12533W        W16131   8.150   6.057   3.083  0.1717  0.0732  0.1217
12534W        W16132  12.735  10.719   5.134  0.1542  0.2388 -0.3240
12535W        W16133   6.193   4.207  15.859 -0.1973 -0.0172 -0.0506
12536W        W16134   9.481  15.441  14.717  0.1251 -0.4277  0.0029
12537W        W16135   9.769  13.536   0.419  0.0638 -0.4066  0.3153
12538W        W16136  13.852   8.103  13.576  0.1694  0.4059 -0.2875
12539W        W16137  14.031  10.355   1.054 -0.1444  0.1361  0.0007
12540W        W16138   7.108   4.627   7.413 -0.0503  0.0326 -0.2231
12541W        W16139   2.197  11.680  11.042  0.0824 -0.0060 -0.0444
12542W        W16140  12.479  13.862   4.869 -0.0769  0.1560 -0.3250
12543W        W16141  13.519   6.370   8.910  0.0420  0.3028  0.1991
12544W        W16142   4.309   1.109  10.354  0.0641 -0.1492 -0.5232
12545W        W16143   6.976  10.565   4.992 -0.0113  0.1075 -0.0331
12546W        W16144   1.738   5.997   8.254 -0.0050  0.1845 -0.0100
12547W        W16145  11.132   8.458   1.187 -0.1480  0.3888  0.2060
12548W        W16146  16.311  12.914  14.645  0.2174 -0.1476 -0.0097
12549W        W16147   4.925   5.125   1.595 -0.0391 -0.1781  0.0672
12550W        W16148   9.272   4.015  13.770  0.5130  0.0474  0.1255
12551W        W16149  15.499   1.570  14.581 -0.0427 -0.3492 -0.2549
12552W        W16150   1.115  11.160   3.689 -0.2213 -0.2559 -0.3210
12553W        W16151   6.802   6.430   3.044 -0.0930 -0.2610  0.1532
12554W        W16152  13.907   7.059   3.261 -0.1072 -0.0044 -0.1106
12555W        W16153   5.508  15.591   1.435 -0.2419 -0.2537 -0.3794
12556W        W16154   4.061   1.329  15.363  0.2623 -0.0040  0.2843
12557W        W16155  13.342   9.842   8.540 -0.0483  0.2911 -0.1220
12558W        W16156   3.130   4.202   9.342 -0.2565 -0.1361 -0.1326
12559W        W16157   1.988   5.943   9.795 -0.0466  0.0897  0.1188
12560W        W16158   9.466   9.521   7.086 -0.0807  0.1334 -0.1044
12561W        W16159   4.321   3.542  11.459  0.2551  0.1785 -0.0792
12562W        W16160   6.569   6.427   5.994 -0.2348 -0.2630 -0.1041
12563W        W16161   8.298  13.641   8.768  0.0753  0.4004  0.1475
12564W        W16162   8.039   7.255   7.620  0.1149 -0.3958  0.1697
12565W        W16163  15.984   9.735   0.207  0.1200 -0.0764  0.0383
12566W        W16164  12.156  13.020   1.567  0.1862  0.2521  0.2920
12567W        W16165  11.446  11.475   1.965 -0.2100 -0.1261 -0.2264
12568W        W16166  12.299  12.946   6.605 -0.0305  0.2097 -0.0879
12569W        W16167   4.802   2.428   4.483  0.1368 -0.4648  0.1565
12570W        W16168  12.126   7.166  12.741  0.0197 -0.2715 -0.0105
12571W        W16169   9.253  13.728  10.127  0.0317  0.3780  0.0788
12572W        W16170   6.705   2.639   2.632 -0.0854 -0.2445 -0.0749
12573W        W16171   3.790  15.963  15.336  0.0566  0.1404  0.0236
12574W        W16172  16.178  14.242  15.061 -0.1403  0.7093  0.0926
12575W        W16173  14.043  12.447  15.075  0.2068  0.0331 -0.0512
12576W        W16174   5.716   0.414   3.127  0.1707  0.1405  0.0358
12577W        W16175  14.156   5.458  15.185 -0.2073  0.4137  0.1475
12578W        W16176   2.150  11.752   6.526 -0.0845 -0.0421 -0.0756
12579W        W16177   2.479   9.028   4.516  0.0410 -0.0018 -0.0978
12580W        W16178   0.302  14.077  12.952  0.0180 -0.0618 -0.1870
12581W        W16179   3.392  13.627   2.455 -0.0228 -0.2006  0.3139
12582W        W16180  12.610   7.090   8.496  0.1114  0.3463 -0.0978
12583W        W16181   0.385   7.969   0.780 -0.5263  0.0641  0.2509
12584W        W16182   2.665   0.678   5.740  0.0880 -0.1307  0.2954
12585W        W16183  13.280   0.681   6.888  0.0644  0.1514 -0.3612
12586W        W16184   9.588   9.172   2.026  0.0767  0.3675 -0.0709
12587W        W16185  13.810   2.233   2.532 -0.2423  0.4587  0.0408
12588W        W16186   8.639  11.674  15.785 -0.0157  0.1959 -0.1897
12589W        W16187  13.138   5.500   9.680 -0.2084  0.5054 -0.0336
12590W        W16188   2.566   8.192   2.804 -0.0663  0.1306  0.0839
12591W        W16189  15.145  15.500   8.713  0.0161  0.3094  0.1180
12592W        W16190   0.025  13.536   6.114  0.3603  0.1841 -0.1892
12593W        W16191   6.225  12.584   5.100 -0.0510 -0.1520  0.2876
12594W        W16192   4.500   1.806   0.916 -0.0816  0.0213  0.0738
12595W        W16193   8.786  13.283   9.009 -0.1607 -0.2602 -0.0789
12596W        W16194   2.659  15.986   6.869 -0.0879  0.2289 -0.2343
12597W        W16195  10.857   1.858   4.838 -0.0223  0.0400 -0.1071
12598W        W16196   8.846  11.578   9.265 -0.1291 -0.1451 -0.0219
12599W        W16197   2.327   3.178   6.107  0.2161 -0.0828  0.0518
12600W        W16198   4.767   4.274  16.209  0.0556  0.2568  0.1247
12601W        W16199  13.245   4.309   5.531  0.1117  0.0807  0.0874
12602W        W16200   8.903  14.170   4.258 -0.1952  0.0042  0.1739
12603W        W16201   8.342   8.372   0.513  0.1435  0.1416  0.3259
12604W        W16202   6.906   6.249  10.899 -0.1652 -0.0066  0.1539
12605W        W16203   9.950   7.145   9.444 -0.0919  0.1921 -0.1233
12606W        W16204  16.113   0.289   7.344 -0.1536 -0.2468  0.2450
12607W        W16205   6.075   5.356   2.531  0.1191 -0.0648  0.2248
12608W        W16206   4.913   4.531  10.696 -0.0724 -0.1546 -0.0541
12609W        W16207   0.938   5.438   9.285  0.0520  0.5596 -0.0391
12610W        W16208  13.801  14.965   3.813 -0.3662  0.1055 -0.3513
12611W        W16209   1.476   4.022   0.228  0.1074 -0.1673 -0.0880
12612W        W16210  13.201   4.884  15.077  0.2155  0.1202 -0.1776
12613W        W16211  10.571   9.741   1.508 -0.0772 -0.1075 -0.1300
12614W        W16212   9.572   8.619   9.775  0.2165 -0.2379  0.0780
12615W        W16213   2.823   7.936  11.954  0.2251 -0.0688  0.0879
12616W        W16214   9.928   1.538  12.270  0.2665 -0.0975  0.0317
12617W        W16215  14.147  15.648   1.985  0.0575  0.4322 -0.0193
12618W        W16216   1.969   8.025   4.139 -0.1468  0.1164 -0.1330
12619W        W16217   5.405  11.172  10.526  0.0984 -0.1143 -0.1782
12620W        W16218  14.194  11.973   7.526  0.4247 -0.1229 -0.2987
12621W        W16219   8.476   5.262  15.384 -0.0918  0.2467  0.1456
12622W        W16220   4.170   3.997   8.099 -0.1010  0.2504 -0.1432
12623W        W16221   4.868   7.028   2.075 -0.0980 -0.0920  0.0938
12624W        W16222  11.091   4.012   9.455  0.0685 -0.2372 -0.0561
12625W        W16223   7.694   0.162   1.952 -0.2115 -0.1653 -0.0760
12626W        W16224  13.874   0.263   9.381  0.2282  0.0072 -0.0574
12627W        W16225   3.639   5.249   6.247 -0.0001 -0.1187 -0.1487
12628W        W16226  12.917  15.337   9.380  0.0774  0.0367  0.3374
12629W        W16227   9.919   6.601   2.153  0.0514 -0.0462 -0.0106
12630W        W16228   6.416  11.028  11.835  0.0967 -0.2924  0.0142
12631W        W16229   6.022   4.825  13.532  0.0468  0.1485  0.2358
12632W        W16230   0.891   1.045   2.135 -0.0709 -0.2193 -0.3665
12633W        W16231  13.999  13.743  12.363 -0.0509 -0.3289  0.2795
12634W        W16232   6.977   2.914  13.950  0.0550 -0.1277  0.1722
12635W        W16233   8.119   1.301  14.669 -0.0455 -0.0726 -0.0985
12636W        W16234   9.797   9.643  11.370  0.2639 -0.0191  0.1612
12637W        W16235   7.155   2.637  10.249  0.2687  0.2151 -0.2795
12638W        W16236  15.534  11.680   6.727 -0.2713  0.3815 -0.0596
12639W        W16237   0.369  12.741   0.577  0.2455 -0.1773 -0.1353
12640W        W16238  10.879  11.472  11.350 -0.2939  0.1859  0.0237
12641W        W16239   0.624  13.380  13.185 -0.0470 -0.4311  0.0802
12642W        W16240   6.178   5.250   6.548  0.1586  0.0005  0.1704
12643W        W16241  14.808  10.968  14.127 -0.0665  0.6121  0.1924
12644W        W16242   1.679   8.328   0.203  0.0062  0.1140  0.1989
12645W        W16243   9.501   2.241  13.297  0.1863  0.2177 -0.4040
12646W        W16244  14.383   4.397   7.702 -0.0145 -0.1231 -0.1847
12647W        W16245   3.090   7.370   2.892  0.1222  0.0428 -0.0740
12648W        W16246   4.659  10.862   9.460  0.1761 -0.1753  0.1368
12649W        W16247  15.217   9.845   0.634 -0.1522  0.0370 -0.1503
12650W        W16248  14.003   8.277   0.121 -0.2777  0.0263 -0.2864
12651W        W16249   3.762   2.757   8.017 -0.0649 -0.3217  0.3756
12652W        W16250   7.133   6.495   7.154 -0.3021  0.0196 -0.3130
12653W        W16251  14.609   6.393   1.293  0.0829  0.2242 -0.0561
12654W        W16252   7.821  13.545  10.908 -0.5171  0.1767  0.1370
12655W        W16253  10.017  13.999   5.178 -0.1269  0.0304  0.1952
12656W        W16254   0.932  10.871   7.547 -0.1598 -0.0238  0.2265
12657W        W16255   5.375  15.728   7.629  0.1269  0.2465 -0.5506
12658W        W16256   2.708   9.369   3.340  0.0952  0.0466  0.1038
12659W        W16257  15.006   5.029   1.032  0.2728 -0.0460 -0.1371
12660W        W16258  15.430   2.706   7.245 -0.0060  0.0701  0.1835
12661W        W16259   8.781  11.045   1.463 -0.0777  0.1060 -0.3481
12662W        W16260   2.193  14.816  14.305  0.0040 -0.1537  0.2898
12663W        W16261  16.112   9.762  11.654 -0.2117  0.3719 -0.2451
12664W        W16262  13.793  16.374  11.178  0.0936  0.1796 -0.3026
12665W        W16263  11.244  12.045   8.091 -0.0613  0.1240  0.0075
12666W        W16264   3.988  13.423  14.424  0.1637  0.2328  0.1107
12667W        W16265   3.610  11.974   5.903  0.0479 -0.0822  0.2174
12668W        W16266  14.921   2.568  10.091 -0.4621  0.1851 -0.4039
12669W        W16267   8.072   1.211  14.148 -0.0911 -0.0338  0.1069
12670W        W16268  13.700  14.749  11.962 -0.0397  0.0860 -0.1006
12671W        W16269  11.510   4.335   0.452 -0.1997  0.1650  0.1092
12672W        W16270   9.212   8.837   3.208  0.0474  0.0410 -0.3790
12673W        W16271  11.356   5.993  13.739  0.3818 -0.0415  0.1533
12674W        W16272   9.869   8.800   0.912 -0.1000  0.2471  0.0236
12675W        W16273  12.617  15.482  13.512 -0.0370 -0.2664 -0.1154
12676W        W16274   6.315   7.328   8.637 -0.0224 -0.2247 -0.0202
12677W        W16275  14.084  14.343  10.589 -0.1521 -0.3007  0.1152
12678W        W16276   1.901  12.580  11.004  0.1258 -0.1955  0.2435
12679W        W16277   1.074  14.981  16.187  0.1962 -0.2488  0.0270
12680W        W16278   8.036  15.556   3.691 -0.0784 -0.1991  0.1938
12681W        W16279  12.688  11.141   3.735  0.0687  0.0205 -0.0837
12682W        W16280   1.451  15.251  12.207 -0.0187  0.0942 -0.0485
12683W        W16281  10.212  10.959  14.716 -0.0999 -0.0764  0.1887
12684W        W16282  14.113   1.274  10.424  0.4092  0.0958  0.1963
12685W        W16283   5.433  13.372   2.630  0.0427  0.1300  0.0057
12686W        W16284   9.067   2.609   2.320  0.0791 -0.0197  0.1067
12687W        W16285  11.421   3.744   5.034  0.0721  0.0594  0.4558
12688W        W16286   3.829   5.543  12.522 -0.2821 -0.0951  0.0339
12689W        W16287   8.299   0.167  10.316  0.0468 -0.1648 -0.1813
12690W        W16288   6.205  12.167   9.374  0.1864  0.1790 -0.3137
12691W        W16289  13.574  11.121  10.250  0.0286 -0.0760  0.1543
12692W        W16290   5.978   6.346   2.841  0.3558 -0.3961 -0.0074
12693W        W16291   9.817  11.874  11.400  0.4294  0.0322  0.1040
12694W        W16292   9.789   5.129  12.765 -0.0230  0.0462  0.1341
12695W        W16293   4.079   7.596  13.208 -0.0365 -0.0703  0.2098
12696W        W16294  11.437   4.411   0.955 -0.0257  0.0269  0.0048
12697W        W16295   3.364   4.953   3.315  0.0831 -0.0095  0.0137
12698W        W16296   9.673  12.719   8.538  0.2246  0.0486 -0.2177
12699W        W16297   3.987   9.973   3.428 -0.1026 -0.0517 -0.0620
12700W        W16298  14.752  14.603   7.662 -0.2386  0.0898  0.2841
12701W        W16299   2.943   9.172  10.687  0.3098 -0.1620  0.1091
12702W        W16300   5.931   9.905   2.799  0.0290 -0.1501  0.5999
12703W        W16301   8.383   9.395   8.652 -0.0639  0.1584 -0.0089
12704W        W16302   2.228  10.900   7.129  0.2253 -0.1182  0.1376
12705W        W16303   1.315   3.781   2.307  0.1374 -0.1074  0.0808
12706W        W16304   7.094   5.169  10.533  0.0112 -0.3524 -0.0263
12707W        W16305   1.861   8.720  14.050  0.1821 -0.1215 -0.1247
12708W        W16306  16.379   2.724  14.412  0.2170 -0.2466 -0.0653
12709W        W16307  15.878  10.191   0.066  0.1658  0.1987 -0.0025
12710W        W16308  11.817   0.937  13.192 -0.5267  0.0314 -0.0289
12711W        W16309  13.214   8.387   2.753 -0.0765 -0.0298  0.1611
12712W        W16310   6.990  14.853   3.004  0.2212  0.1974 -0.2870
12713W        W16311   3.561  13.331   9.054  0.1778  0.1598  0.1083
12714W        W16312  11.155  14.875   6.973 -0.0454 -0.3599 -0.0411
12715W        W16313  10.132   0.035   6.921 -0.0101 -0.0209 -0.1384
12716W        W16314   0.336   8.101   7.610 -0.1592 -0.0243  0.3786
12717W        W16315  11.912  16.288   1.227 -0.0496 -0.1554  0.1416
12718W        W16316   6.556   3.257  13.883 -0.2213 -0.0101  0.2181
12719W        W16317  16.113   0.138   5.663  0.3409 -0.1695 -0.2835
12720W        W16318  15.391   8.154   9.530 -0.3286  0.3482  0.0995
12721W        W16319  11.235   6.839   7.407 -0.0916 -0.0419  0.2036
12722W        W16320   7.462   3.895   2.150 -0.1165  0.2206 -0.1367
12723W        W16321   9.159  16.174   8.047 -0.1141  0.2131 -0.1261
12724W        W16322  14.018   3.511   5.996 -0.3181 -0.3679  0.0374
12725W        W16323  15.140   1.449  12.965  0.2806  0.1200 -0.0122
12726W        W16324   1.999   2.202   0.768  0.1401 -0.2354  0.2921
12727W        W16325   0.058  11.346   7.810 -0.0875  0.4459 -0.3220
12728W        W16326   7.229  11.026  11.982  0.1300  0.0553  0.1329
12729W        W16327  14.987   6.367   0.049  0.1409  0.0892 -0.2984
12730W        W16328   0.816  12.047  16.196 -0.1927  0.1426  0.1198
12731W        W16329  15.614   7.144   6.832  0.0179  0.0248  0.3644
12732W        W16330   8.843  15.203   0.445  0.1591 -0.1127  0.1969
12733W        W16331   0.145   6.422  10.285  0.2356  0.2124 -0.1014
12734W        W16332  15.601  12.476  15.137  0.4174  0.0697 -0.0497
12735W        W16333   4.757  10.429   6.757 -0.2033 -0.1414  0.1677
12736W        W16334   5.659   1.901  10.430  0.1654  0.0946  0.1582
12737W        W16335   0.174  10.471   8.848 -0.0430  0.0747  0.0471
12738W        W16336  15.430   7.890   8.964  0.0198  0.0848 -0.2313
12739W        W16337  10.311   4.890   7.009  0.4399  0.2857 -0.1105
12740W        W16338   9.487   8.956   8.428  0.1677  0.2042 -0.2711
12741W        W16339   4.333   0.400   6.386 -0.0351 -0.3192  0.1003
12742W        W16340   2.364   0.133   0.197  0.0659  0.0033 -0.2369
12743W        W16341   2.155  14.818  15.197 -0.1396  0.2102 -0.2969
12744W        W16342  14.139   4.617   4.911  0.1050  0.0072  0.1686
12745W        W16343  10.181   5.820  16.155  0.1718 -0.1261 -0.2697
12746W        W16344   9.431  11.598  13.161 -0.1441 -0.0914  0.2688
12747W        W16345   9.468   8.820   0.493  0.2498 -0.0858 -0.2741
12748W        W16346  10.909   4.914   3.073  0.0564  0.0775 -0.2166
12749W        W16347   8.587   7.066  14.872 -0.1434 -0.3175 -0.0463
12750W        W16348  14.143   0.892  12.528 -0.2871  0.0128  0.2246
12751W        W16349  13.372   6.688  10.791 -0.0492 -0.0760 -0.0196
12752W        W16350   2.362   6.110   5.556 -0.1603 -0.3538  0.0138
12753W        W16351   8.104   6.738  14.081 -0.0866 -0.0741  0.3373
12754W        W16352  11.333   1.631   6.448 -0.1380 -0.0293  0.1004
12755W        W16353   7.963  15.245   9.262 -0.2222 -0.1397  0.1616
12756W        W16354   1.639   2.348  13.724 -0.0959  0.2845 -0.0739
12757W        W16355   2.028  10.860  14.569 -0.1318 -0.0766  0.1787
12758W        W16356  14.802  12.838   4.099  0.1058  0.1202  0.1095
12759W        W16357  15.500  13.913   6.277  0.1203  0.2865 -0.2204
12760W        W16358   7.498  13.229   1.610  0.0162  0.1228 -0.1733
12761W        W16359   9.250   9.084  11.240 -0.0152  0.3886 -0.1119
12762W        W16360   2.212  10.768   5.926 -0.0031 -0.1132  0.1878
12763W        W16361   8.939   8.602   6.903  0.2892  0.3223  0.1723
12764W        W16362  13.462   3.722   1.570  0.0847 -0.2334  0.1496
12765W        W16363   8.976   5.276   9.021 -0.1280  0.2898  0.1041
12766W        W16364   3.496   7.100   3.046 -0.1846 -0.2189  0.1104
12767W        W16365   3.457   6.381  12.072 -0.0572  0.2347 -0.0139
12768W        W16366   7.979  11.199  15.412 -0.0889  0.0160 -0.1087
12769W        W16367  12.947   9.163  12.957  0.2449  0.0927  0.0362
12770W        W16368   4.105   1.374   2.444  0.0250  0.0581 -0.0737
12771W        W16369  14.117   7.739  15.511  0.3695 -0.0450  0.1780
12772W        W16370  12.212   5.829  12.308 -0.2580 -0.0289 -0.0218
12773W        W16371   2.157   5.057   7.099 -0.2354  0.2993  0.1120
12774W        W16372  11.687  14.541  13.364 -0.0428 -0.0441 -0.4245
12775W        W16373   5.430  10.681  13.369  0.1881 -0.0720  0.0348
12776W        W16374  12.348   5.582  11.485 -0.0950  0.1761 -0.1433
12777W        W16375   8.168   9.351   7.717 -0.1173 -0.0338 -0.1161
12778W        W16376  15.259  10.086   1.690 -0.0607  0.0038 -0.3127
12779W        W16377  13.745  13.208  11.850 -0.2457  0.3273 -0.0425
12780W        W16378  13.414   6.404   9.702 -0.2508 -0.2873 -0.0780
12781W        W16379  13.593  10.220   6.004 -0.0435  0.0241  0.2167
12782W        W16380  13.647   0.568   7.980 -0.3263  0.1538 -0.0719
12783W        W16381  15.556   4.775   8.917 -0.4048  0.2174  0.0769
12784W        W16382  13.932  13.425  10.480  0.0489 -0.0440 -0.0631
12785W        W16383   9.384  15.873   0.244  0.0929 -0.2199 -0.1137
12786W        W16384  11.633   8.664   2.848  0.2523 -0.0286 -0.1839
12787W        W16385  11.575  15.006  10.922 -0.0333  0.0064 -0.0346
12788W        W16386   8.015   8.471   9.351  0.1602 -0.2556 -0.0389
12789W        W16387   8.436  13.445  10.983  0.1273  0.0156 -0.2800
12790W        W16388   3.124  16.309  14.343  0.3244 -0.3074  0.0236
12791W        W16389   8.517   7.593   8.037  0.2694  0.0752 -0.3045
12792W        W16390   4.027   8.536  11.786 -0.0668 -0.0541  0.1500
12793W        W16391  15.889  15.126   2.019 -0.0933 -0.0920 -0.2614
12794W        W16392   0.378   9.394  13.385 -0.2545 -0.0881 -0.4807
12795W        W16393  16.000  13.116   0.889 -0.0973  0.3216 -0.1089
12796W        W16394  16.053   4.203  11.074  0.3950  0.0579 -0.0049
12797W        W16395   8.790   9.493  12.211 -0.2429  0.2653 -0.0619
12798W        W16396  10.300   3.945   3.415 -0.0380  0.1680 -0.0318
12799W        W16397   5.640   7.851   5.616 -0.2658 -0.0646  0.3245
12800W        W16398  15.832   9.128   5.699  0.0336  0.3073 -0.1366
12801W        W16399   4.048   6.953   3.185 -0.4706 -0.1701 -0.0349
12802W        W16400  15.392   7.589   7.499  0.4270 -0.2330  0.1231
12803W        W16401   3.857  12.003   7.346 -0.1452 -0.2467  0.3400
12804W        W16402  11.346   2.433   2.803 -0.0230 -0.2196 -0.2301
12805W        W16403   8.523   6.168   7.314 -0.1370 -0.0126  0.1307
12806W        W16404   8.383   6.336   8.628 -0.0510  0.0855  0.0895
12807W        W16405   9.935   6.688  10.352 -0.1366  0.3317 -0.1195
12808W        W16406   3.801  12.758   5.515  0.0285 -0.1222 -0.0821
12809W        W16407   5.127  12.244  15.730 -0.1859  0.1285 -0.0394
12810W        W16408   8.139  14.500  15.796 -0.1430  0.0968 -0.1540
12811W        W16409   6.109  12.256  10.800 -0.0253 -0.0225  0.0070
12812W        W16410   3.140  11.087   8.150  0.2302 -0.5348 -0.2848
12813W        W16411  13.546  10.498  10.375 -0.2893 -0.0964  0.2898
12814W        W16412  14.718   9.287  11.234 -0.0917  0.0615 -0.0818
12815W        W16413  10.496  11.198  13.101  0.1373  0.2241  0.0076
12816W        W16414  13.650  10.869  16.365 -0.0895 -0.1685 -0.0857
12817W        W16415   7.782   2.287   6.406 -0.0182 -0.1739 -0.0924
12818W        W16416  10.207   8.819   5.208  0.3868 -0.2601 -0.1670
12819W        W16417  10.483   2.226   7.884 -0.1956 -0.1031 -0.1441
12820W        W16418   1.171  10.614  11.874  0.2446 -0.1362 -0.0673
12821W        W16419  14.783   8.048   7.901  0.2320  0.1005  0.0312
12822W        W16420  11.288   6.886   9.362 -0.2662 -0.3377  0.0669
12823W        W16421  10.224   4.716   7.456  0.0087  0.0745  0.0277
12824W        W16422   7.226   9.020   6.216  0.1423 -0.1757  0.1038
12825W        W16423   7.141   1.005   7.385 -0.1142  0.0027  0.1703
12826W        W16424   4.362   2.773   7.549  0.3120 -0.1004 -0.0014
12827W        W16425   5.473  12.308   5.872 -0.0248 -0.3990 -0.1265
12828W        W16426  10.113   2.192  10.107  0.0157 -0.1843  0.1559
12829W        W16427  14.550   8.736  13.622  0.1665  0.3306  0.3369
12830W        W16428   6.019   4.552  12.253 -0.0434  0.1042 -0.2041
12831W        W16429  15.982   5.997  15.579  0.5174 -0.0724  0.2600
12832W        W16430   1.484   5.958   2.995 -0.0236 -0.0260  0.0494
12833W        W16431   1.940  10.939  13.476 -0.1540  0.2678  0.1161
12834W        W16432   4.370   5.044   6.840  0.1565 -0.0108 -0.1152
12835W        W16433  10.714   6.457   3.132 -0.2328 -0.1547 -0.0826
12836W        W16434   3.692   2.318   9.445  0.1692 -0.1242 -0.0095
12837W        W16435   4.406  16.285   2.749  0.1485  0.1854  0.1195
12838W        W16436   7.536   7.694  10.215 -0.2835 -0.0678  0.1204
12839W        W16437  14.595   6.546   7.529  0.2516  0.0787 -0.0933
12840W        W16438  15.607  15.144   5.715  0.0766 -0.1638 -0.1525
12841W        W16439   4.899   5.532  15.358  0.1517 -0.0245  0.0664
12842W        W16440   9.041  13.091  11.906 -0.1971 -0.2494 -0.1326
12843W        W16441   8.959  10.408   6.686 -0.0375  0.1544  0.0465
12844W        W16442   6.921   1.427  13.700 -0.1457  0.0915  0.3203
12845W        W16443  14.087  11.363  12.397  0.1499 -0.0192  0.0984
12846W        W16444   1.805   5.264  12.849 -0.0914 -0.3129  0.1513
12847W        W16445  14.821   6.380  12.198  0.0119 -0.0166 -0.2033
12848W        W16446   0.743  13.479  13.679 -0.1843  0.4411  0.2799
12849W        W16447  15.474   1.056   7.581 -0.0013  0.0342 -0.0876
12850W        W16448   1.959   7.741  14.048  0.0532 -0.0267 -0.0215
12851W        W16449   3.635   0.977  15.592 -0.2056  0.2862 -0.0386
12852W        W16450   9.436   1.778  14.107 -0.0476  0.0413  0.1423
12853W        W16451   2.248  10.661   9.142  0.2977 -0.0620 -0.1139
12854W        W16452   1.372  12.285  13.863 -0.0034  0.0159 -0.2733
12855W        W16453   6.585   8.560  13.216  0.0211  0.2550 -0.0569
12856W        W16454   3.521  16.041   2.352 -0.5961  0.0197 -0.3642
12857W        W16455   8.411   1.533   5.642  0.0964  0.2375  0.0419
12858W        W16456  14.481  13.302  12.690 -0.0013  0.1042 -0.1619
12859W        W16457  14.744   9.206   4.637 -0.0375  0.1871 -0.0086
12860W        W16458  10.704   7.352  16.068 -0.0676 -0.0984  0.2469
12861W        W16459   8.616  10.995  11.049 -0.2586  0.1130  0.1867
12862W        W16460   8.655   3.896   9.405 -0.1266 -0.0451 -0.0463
12863W        W16461  13.686   2.784   8.657  0.0171 -0.0709 -0.2120
12864W        W16462   9.604   7.212   5.308  0.0127 -0.0622  0.0494
12865W        W16463  14.719  13.372   3.009 -0.0930  0.0544 -0.3083
12866W        W16464   3.185   4.825  13.887  0.1482  0.1932 -0.3423
12867W        W16465   5.676   2.428   2.556  0.1156  0.0441 -0.0442
12868W        W16466  14.721   5.544  12.650  0.1120 -0.1246  0.1975
12869W        W16467   3.914  10.449   9.997  0.0616 -0.0482 -0.1114
12870W        W16468   2.835   8.808   3.784  0.1292  0.0720  0.3109
12871W        W16469  15.219   7.335   1.671 -0.4663 -0.2622  0.3952
12872W        W16470  14.581   9.685  10.161 -0.1173 -0.5216 -0.2072
12873W        W16471   9.987   6.526   7.086 -0.0333 -0.0100  0.0638
12874W        W16472   5.473   9.470  15.253 -0.0459 -0.2328 -0.1235
12875W        W16473  15.058   0.360   6.407 -0.1554  0.3516 -0.1304
12876W        W16474  15.898  16.065  11.923 -0.0813  0.0159  0.0977
12877W        W16475   0.614   0.851   9.694  0.0054  0.1458  0.0138
12878W        W16476  14.151   9.851   3.332 -0.1233  0.1438  0.0312
12879W        W16477  13.845   2.701   6.732 -0.0621  0.1043  0.1324
12880W        W16478   4.313   3.611  15.082 -0.1820  0.1226 -0.2107
12881W        W16479  14.361   3.280   3.529 -0.2344  0.1806  0.2192
12882W        W16480  14.362  12.711   8.400  0.0579 -0.3253 -0.0704
12883W        W16481  11.888  12.722  10.859 -0.1401 -0.3544 -0.0611
12884W        W16482  13.741   1.187   4.311  0.2906  0.1413  0.3410
12885W        W16483  16.278  14.949  13.849  0.1601 -0.0027 -0.4749
12886W        W16484   6.038   3.350   6.493  0.1631  0.1158 -0.2143
12887W        W16485  12.827   6.977   2.355 -0.1661  0.0512 -0.0602
12888W        W16486   9.684   4.638  12.777  0.0548 -0.2599 -0.0886
12889W        W16487   4.010   9.846   9.956  0.2340 -0.1606 -0.0655
12890W        W16488   7.209  13.767  15.099  0.0707  0.3432 -0.0928
12891W        W16489   6.749   1.089  15.771  0.1248 -0.2955 -0.0048
12892W        W16490   9.717   2.521   7.866 -0.2807  0.0510 -0.1078
12893W        W16491   7.917   6.185   7.289  0.0057  0.2448  0.1618
12894W        W16492  11.808   1.471  12.210 -0.2775 -0.1067 -0.1334
12895W        W16493   2.715   0.484  14.595 -0.0506  0.1706  0.2262
12896W        W16494   7.665   9.387  12.194 -0.0589 -0.0538 -0.2242
12897W        W16495   5.992   6.385   6.808 -0.4045  0.1585  0.1297
12898W        W16496  14.736   8.563   6.026  0.4074 -0.2276 -0.1056
12899W        W16497  14.014  12.981   7.069 -0.4154  0.0143 -0.0323
12900W        W16498   4.677   3.076   2.276  0.2761 -0.0588  0.0611
12901W        W16499   9.170   9.915   0.789 -0.0172 -0.1214  0.1217
12902W        W16500   8.882  12.374  10.248  0.1517  0.3132  0.0334
12903W        W16501  12.826   2.555  15.028  0.2130 -0.0896 -0.0653
12904W        W16502   1.489   1.045  15.255 -0.2606 -0.1864 -0.0146
12905W        W16503  16.108   5.113   2.787 -0.0178  0.1976 -0.0862
12906W        W16504   7.873   9.176   0.942 -0.1075 -0.0379  0.0779
12907W        W16505   2.059  13.007   1.732  0.1400  0.0339  0.0465
12908W        W16506   6.903   4.011  15.917 -0.0124  0.1089 -0.0543
12909W        W16507   0.588   6.969  11.300  0.0238  0.0682 -0.3116
12910W        W16508   1.318   4.715   4.601  0.4656 -0.0165  0.1470
12911W        W16509   1.214  11.837  14.020 -0.2054  0.0318  0.5149
12912W        W16510   0.661  12.470   6.197  0.1994 -0.0679  0.0591
12913W        W16511   3.976   4.596   8.391  0.0736 -0.0512 -0.0610
12914W        W16512   1.672   7.797   8.534 -0.0862  0.0426  0.0620
12915W        W16513   4.191  14.116   8.919 -0.1205 -0.0412 -0.1077
12916W        W16514   7.011  15.996   0.282 -0.2544  0.1185 -0.0418
12917W        W16515   8.423   9.030   6.207 -0.0454  0.1635 -0.1002
12918W        W16516   6.348   4.508   5.008 -0.1681  0.0750 -0.0478
12919W        W16517   4.196  10.527   6.840 -0.4069  0.0158  0.0928
12920W        W16518  12.895   9.154   2.844 -0.2653  0.1754  0.2468
12921W        W16519   7.170   7.089  11.443 -0.0783 -0.1178 -0.0013
12922W        W16520  14.974  14.623   6.229  0.1926  0.1429  0.1805
12923W        W16521   2.938   6.908  11.771 -0.2930 -0.0078 -0.2059
12924W        W16522   1.669   6.339   0.330  0.0836 -0.0397 -0.0418
12925W        W16523  13.027   9.842  10.828 -0.3221  0.0280  0.2274
12926W        W16524   5.757   7.549   6.579 -0.0784 -0.0940  0.4069
12927W        W16525  14.800  15.422   3.147 -0.1855 -0.4534  0.3044
12928W        W16526   9.357   2.268   1.925  0.1628  0.0674  0.3262
12929W        W16527   1.146  15.190   2.308  0.1203  0.1105 -0.1926
12930W        W16528   3.844  14.302  11.546 -0.1970 -0.0996 -0.0841
12931W        W16529   4.639   4.436  10.245  0.4471  0.1835  0.0822
12932W        W16530   9.898   8.207   7.105  0.2979 -0.1134 -0.1269
12933W        W16531  11.634  13.733  12.390 -0.4885 -0.2507  0.2640
12934W        W16532   1.359  14.781   9.845 -0.1712  0.0020  0.3211
12935W        W16533   8.695   2.072   4.835 -0.0943 -0.2069  0.1189
12936W        W16534   7.753   8.575   8.810 -0.1732  0.2280  0.1141
12937W        W16535  13.814  15.625   9.400  0.1122  0.0784 -0.0812
12938W        W16536   7.815   6.238  13.071  0.1775  0.0402 -0.1065
12939W        W16537   3.935   1.400   8.293 -0.1566  0.2219  0.1943
12940W        W16538   4.784   0.941   5.606  0.0306  0.0672  0.0776
12941W        W16539  11.456  12.891   8.536  0.0879  0.0187 -0.3435
12942W        W16540  11.941   3.703   3.403 -0.0117  0.2302  0.2955
12943W        W16541   8.660  12.468   5.032  0.0187  0.0955  0.0217
12944W        W16542  10.292   7.583  11.291  0.1052  0.2132 -0.3021
12945W        W16543   9.292   2.579  15.751  0.0429 -0.1264  0.2755
12946W        W16544  16.031  15.015   4.027  0.2326  0.0202  0.1644
12947W        W16545  13.021   0.080   5.518  0.0086 -0.4974  0.0053
12948W        W16546  11.721  11.153  10.716  0.2767  0.0269  0.1410
12949W        W16547  12.108   3.021   4.149 -0.1333 -0.0560  0.1756
12950W        W16548  12.341  16.342   1.644 -0.3605  0.0300  0.0498
12951W        W16549   2.935  13.422  16.025 -0.0462 -0.1727  0.1143
12952W        W16550   0.209  12.003   1.731  0.0840 -0.0994 -0.3478
12953W        W16551  10.368  14.955  11.957 -0.2716 -0.2121  0.3068
12954W        W16552  13.449  14.405  11.315  0.0122 -0.2241  0.1208
12955W        W16553  11.490   0.978  12.283  0.5624  0.1693  0.0196
12956W        W16554   1.482   2.688   5.670 -0.0289  0.0256  0.2475
12957W        W16555   8.115   0.935  10.908 -0.2002 -0.3041  0.3827
12958W        W16556   3.829   7.836  14.503  0.1586  0.3532 -0.3246
12959W        W16557  15.500  11.920   6.311 -0.0243 -0.4125 -0.0272
12960W        W16558   3.035   2.830   5.655  0.1050 -0.2367  0.1897
12961W        W16559  11.751   2.836   7.311  0.0689  0.0915 -0.0710
12962W        W16560  14.538   1.592  13.560 -0.1134 -0.1986 -0.0365
12963W        W16561   5.550  11.815   3.155 -0.0790  0.3473  0.3332
12964W        W16562  13.881  14.599   7.129 -0.0716 -0.1244  0.1422
12965W        W16563  16.380  12.874   1.252  0.1766 -0.1119 -0.1346
12966W        W16564  15.456   6.003   1.997  0.2221 -0.0640 -0.0022
12967W        W16565   2.681   4.382   9.142  0.0876 -0.0266 -0.1516
12968W        W16566  13.808   8.822   7.056  0.0282  0.0923  0.0239
12969W        W16567  13.230  15.774  10.052 -0.1357  0.2462  0.0750
12970W        W16568   2.482   5.879   9.699  0.1119 -0.0162 -0.1795
12971W        W16569   3.911  14.375   2.683 -0.1577 -0.2127 -0.1733
12972W        W16570  13.477   2.461  15.341 -0.1817  0.3297 -0.0562
12973W        W16571   4.615  13.349   1.592 -0.2871 -0.2049  0.2011
12974W        W16572   9.402   9.985   4.232  0.2297 -0.2521 -0.0058
12975W        W16573   8.008   8.983  12.920  0.3050 -0.2050  0.0037
12976W        W16574  10.250   0.257   3.547 -0.0513  0.3730  0.4159
12977W        W16575   9.431   9.657  14.434  0.1407 -0.0279  0.0421
12978W        W16576  14.003  10.040  14.082  0.2224 -0.0189  0.0013
12979W        W16577   8.324  13.265  14.707  0.2466  0.1484 -0.1845
12980W        W16578   2.993  11.156  14.496  0.0771  0.3511  0.2755
12981W        W16579  15.673  10.710  11.678  0.2948 -0.1385 -0.2166
12982W        W16580   4.505   3.555   0.861 -0.2355 -0.1993 -0.0197
12983W        W16581  15.735   8.829  16.320  0.1398  0.0203 -0.1365
12984W        W16582   5.553   0.489   6.306  0.2551  0.3387  0.0868
12985W        W16583  12.220  15.219  12.878 -0.0500  0.1945 -0.2121
12986W        W16584   9.391   4.647  10.934  0.1397  0.0648 -0.0994
12987W        W16585   5.519  11.023  13.031 -0.1216 -0.0297 -0.0233
12988W        W16586  10.120   2.542   9.694 -0.0195  0.0048  0.3639
12989W        W16587   9.378  11.018   7.052 -0.1302  0.3142 -0.3054
12990W        W16588  15.571   6.341  15.589 -0.1085  0.1778 -0.0880
12991W        W16589   5.589  15.389  10.057  0.1216  0.2035 -0.0866
12992W        W16590   7.484   7.034   5.428 -0.4167 -0.0694  0.2543
12993W        W16591   2.863   0.107   8.848 -0.0681 -0.3160  0.1031
12994W        W16592  14.521  13.749   7.324 -0.0021  0.0607 -0.2351
12995W        W16593   1.025  12.098   1.448 -0.1968 -0.3458  0.2975
12996W        W16594   1.129   2.482  10.574  0.1042  0.1578  0.1163
12997W        W16595   1.755  15.576   3.014  0.3238 -0.3378  0.1725
12998W        W16596  15.613  14.314   3.755  0.2028  0.2943  0.0180
12999W        W16597   0.256   5.425   6.384 -0.2948 -0.3045  0.1328
13000W        W16598   5.757   9.558   4.533  0.3148 -0.3309  0.3454
13001W        W16599   9.136   3.939  10.333  0.1461  0.0829  0.1316
13002W        W16600  10.359   6.687  14.272 -0.3250  0.1120 -0.3205
13003W        W16601  12.355  12.398   5.594  0.0125 -0.3277  0.1299
13004W        W16602   8.859  10.163   4.827  0.0766  0.1401 -0.2759
13005W        W16603   1.077  15.082  15.221 -0.0147 -0.1032 -0.0239
13006W        W16604   4.756   6.543   9.050 -0.0942 -0.0299 -0.1448
13007W        W16605  14.663   9.436   8.475  0.3852  0.3161 -0.2553
13008W        W16606   1.268   6.368  14.347 -0.0893  0.0736 -0.1043
13009W        W16607   2.552   0.967   6.153  0.0850  0.0744 -0.2999
13010W        W16608   0.555  12.984   3.260 -0.0033 -0.2512 -0.2717
13011W        W16609  10.686  15.093   8.597  0.1103  0.0121 -0.0589
13012W        W16610   4.165  16.273   6.623  0.1326 -0.0362  0.2319
13013W        W16611   0.385   3.252   6.065  0.1296  0.0322 -0.1509
13014W        W16612   2.083   2.233   7.649  0.1859 -0.0951 -0.1882
13015W        W16613   6.302  13.528   6.049 -0.1272  0.0526  0.2708
13016W        W16614   4.442   9.995   4.662 -0.1974 -0.0287  0.0202
13017W        W16615   1.039  13.390   4.701  0.0176 -0.0233 -0.0639
13018W        W16616   0.278  11.173   6.083  0.2064  0.0817 -0.0957
13019W        W16617   9.306  12.693   6.315  0.1507  0.0930 -0.0399
13020W        W16618   7.908   4.032   6.368  0.1177  0.1125 -0.0910
13021W        W16619  15.513   5.626  13.961 -0.0098 -0.0830 -0.4181
13022W        W16620   8.722   8.629   8.230 -0.2252 -0.0274 -0.1492
13023W        W16621   7.359   6.137   8.509 -0.0345 -0.0078  0.2775
13024W        W16622   4.539   9.419  15.722 -0.2396  0.0758 -0.2845
13025W        W16623   9.628  10.832   9.668 -0.1500  0.3558 -0.2042
13026W        W16624  10.491  10.642  13.122  0.1362 -0.0080 -0.3615
13027W        W16625  12.772  13.340   4.663 -0.1800  0.0535  0.1679
13028W        W16626  13.907   9.442  11.180  0.1647  0.1882  0.2851
13029W        W16627  15.995   3.484  16.184  0.0668  0.2292 -0.0783
13030W        W16628  10.689   7.703   7.123  0.1008 -0.0838 -0.1275
13031W        W16629   3.033   8.806   9.474 -0.1153 -0.3328 -0.0612
13032W        W16630   1.379  11.050   7.505 -0.0940  0.0926 -0.1036
13033W        W16631   9.565   6.195   9.004  0.1324 -0.0159  0.2146
13034W        W16632  14.414  12.559   9.526  0.2978 -0.1403  0.1891
13035W        W16633   1.252   9.176  12.067 -0.2228  0.0041  0.1294
13036W        W16634   0.213  13.732   1.613  0.0235 -0.2078  0.1407
13037W        W16635   0.611   9.566   4.217 -0.0944 -0.3345 -0.1189
13038W        W16636  11.803  11.062  11.189 -0.1176  0.0335  0.0438
13039W        W16637  14.563   8.041   5.836  0.0746  0.3858  0.1246
13040W        W16638  13.034   2.005   9.143  0.1290  0.3213 -0.0499
13041W        W16639  13.362   0.689   7.402  0.0550 -0.3103  0.2647
13042W        W16640   3.652   6.238   6.007 -0.1506  0.0126 -0.1619
13043W        W16641   6.117   0.712  16.191  0.1855  0.5022  0.1378
13044W        W16642  13.322   1.585   9.506 -0.2142 -0.1519 -0.2496
13045W        W16643  13.074   5.389   5.800  0.0508 -0.0983  0.0406
13046W        W16644   7.448   2.994  14.623  0.0959  0.3651  0.1724
13047W        W16645   1.408   5.455  14.220 -0.0612  0.1228  0.1012
13048W        W16646   7.681   8.000   6.825  0.0993 -0.0546  0.1233
13049W        W16647   5.581  13.290   1.698 -0.4397 -0.1490  0.0686
13050W        W16648   6.223  12.083   0.367 -0.2110 -0.0841  0.0615
13051W        W16649   5.285  16.064   1.497  0.1692  0.1979 -0.1431
13052W        W16650  10.452  10.070   3.202 -0.1778 -0.0629 -0.0253
13053W        W16651  14.559  13.502  14.218  0.0518 -0.0254 -0.0018
13054W        W16652   6.667   5.416  14.001  0.0588 -0.1623  0.0634
13055W        W16653  15.496   8.511   0.942 -0.0660 -0.0214  0.2246
13056W        W16654  15.132  15.303  14.352  0.1934 -0.0025 -0.3753
13057W        W16655   6.131  13.039   3.403 -0.1995  0.1388 -0.1631
13058W        W16656   9.564  15.060   5.728  0.0034  0.0061  0.1713
13059W        W16657  13.573   0.361   2.967  0.4414  0.0047  0.0994
13060W        W16658   3.824  10.119   1.423  0.1036  0.1782  0.0581
13061W        W16659  14.385   7.156  12.527 -0.0198 -0.2730  0.0512
13062W        W16660  11.113   7.232   0.079  0.0852 -0.0204  0.0079
13063W        W16661  12.509  11.836   1.020 -0.0472  0.0532 -0.0875
13064W        W16662   9.065  11.655  14.591 -0.1665 -0.1601  0.2004
13065W        W16663   6.992   6.618   8.740  0.0229  0.0569  0.0942
13066W        W16664  10.607   8.597   8.531 -0.1049  0.1300 -0.1431
13067W        W16665   2.807   8.181   1.467  0.1998  0.0688  0.0597
13068W        W16666  15.736  12.885  11.044  0.1550  0.4217  0.0292
13069W        W16667  13.700   6.152   1.046  0.1166  0.2082 -0.1316
13070W        W16668  15.560  12.991   2.887 -0.2348  0.2008  0.1749
13071W        W16669  14.112  14.727   4.626 -0.0665  0.1821 -0.3097
13072W        W16670   5.579   3.741  15.465 -0.1213  0.1262 -0.0568
13073W        W16671   5.630   1.745  11.147 -0.0096  0.0976 -0.1555
13074W        W16672   9.157  10.125  13.876  0.0105  0.0588 -0.1014
13075W        W16673   9.135   9.691   0.226  0.0834  0.2355 -0.1192
13076W        W16674   1.899  13.731  15.799 -0.2510  0.3313 -0.1938
13077W        W16675   1.169   2.772   1.321  0.0520  0.2101  0.1330
13078W        W16676   7.366   1.534   8.327 -0.2231  0.1115  0.3539
13079W        W16677  12.723   5.310  14.823  0.2108 -0.1891 -0.2518
13080W        W16678  13.747   2.300   5.762  0.0861  0.1500  0.2068
13081W        W16679   3.610  11.675   3.196 -0.0572  0.2484 -0.3005
13082W        W16680   8.116   7.292   3.432  0.0755 -0.1358  0.0855
13083W        W16681  15.844  11.496  16.302  0.3650  0.2222 -0.4569
13084W        W16682  12.041  10.671   3.008  0.3110 -0.0358  0.1051
13085W        W16683   5.120   6.654  15.036  0.0140 -0.1515 -0.0923
13086W        W16684  16.087   7.451   8.785 -0.1255 -0.2265  0.2276
13087W        W16685  10.888  14.175  11.968 -0.0768  0.1054 -0.2332
13088W        W16686  16.360   3.459   1.851 -0.0128 -0.1798  0.0101
13089W        W16687  11.395   4.654  14.279  0.0271 -0.1439  0.0876
13090W        W16688  11.401   6.326  11.314 -0.0606  0.0765 -0.3112
13091W        W16689   6.646   8.515  14.650  0.0399 -0.2213 -0.2945
13092W        W16690  12.778  15.858   7.845 -0.0750  0.0047  0.2143
13093W        W16691   1.974   1.684   1.403 -0.3386 -0.0283  0.0915
13094W        W16692   8.171   9.774   7.947  0.5480 -0.2216 -0.0706
13095W        W16693   4.922   1.965   1.098  0.1069  0.0274 -0.1110
13096W        W16694   7.554   5.149  16.078  0.1480  0.0970 -0.0917
13097W        W16695  11.320   1.417   7.147  0.0355 -0.1456 -0.0122
13098W        W16696  16.036   4.391   2.272  0.4122  0.3975  0.2529
13099W        W16697  14.896  11.057   0.527  0.2935  0.0679 -0.1088
13100W        W16698   1.878  15.270   6.115 -0.0156  0.0170  0.1061
13101W        W16699   0.604   0.485  11.434  0.0632  0.0252  0.2500
13102W        W16700   3.696   2.588   1.211  0.0426 -0.2462  0.1126
13103W        W16701   0.779  15.907   5.034 -0.3080 -0.1056  0.0173
13104W        W16702   7.678  11.517   0.557  0.3094 -0.0895  0.0433
13105W        W16703   2.164  15.947  12.513 -0.2154  0.0696 -0.0580
13106W        W16704  10.989   1.407   5.621 -0.2071  0.0020 -0.3286
13107W        W16705   6.091   9.537   4.029 -0.0152  0.2266  0.0056
13108W        W16706   9.079  11.212   7.419  0.1773  0.3376 -0.1591
13109W        W16707   6.164   5.269  13.958 -0.2465 -0.1432  0.0745
13110W        W16708   5.746   2.098  15.666  0.2508 -0.2087 -0.0996
13111W        W16709  13.695  14.092  15.270  0.1129 -0.2492 -0.1890
13112W        W16710   0.680  13.062  14.060  0.0923  0.1081 -0.0474
13113W        W16711   9.715  10.238   1.603  0.0837 -0.1517 -0.1064
13114W        W16712   2.695   1.449   5.965 -0.1890 -0.1590  0.1955
13115W        W16713  12.666   4.261  13.037 -0.1947  0.1576 -0.1289
13116W        W16714   2.423  12.259  14.315  0.0248  0.1641  0.0351
13117W        W16715   1.887  10.426  13.176 -0.0007 -0.3012  0.0620
13118W        W16716  12.570  16.037  13.863 -0.2371 -0.2524  0.0422
13119W        W16717  11.734   9.579   2.491  0.0276 -0.0155 -0.1876
13120W        W16718   9.493   5.333  11.846 -0.2032 -0.1506  0.1087
13121W        W16719   0.924   1.741   6.807 -0.0087 -0.0381  0.4072
13122W        W16720   9.168   7.774   2.135  0.1065 -0.0826 -0.2782
13123W        W16721   5.175   8.936   8.878  0.0599 -0.0689  0.0295
13124W        W16722  13.863  15.157   9.022  0.0344 -0.0176 -0.5647
13125W        W16723   0.036  16.092   4.657 -0.0521  0.1234 -0.0167
13126W        W16724  12.392  13.560   8.353  0.0787 -0.0003  0.1711
13127W        W16725   4.880   7.437   0.662  0.1114  0.0765  0.4677
13128W        W16726   7.986   3.023   5.881 -0.2315 -0.3811  0.1005
13129W        W16727  16.186  11.130  12.964  0.0636  0.0994  0.0204
13130W        W16728  12.304  12.746   2.027 -0.1021 -0.0983  0.1102
13131W        W16729  15.021  15.096   4.532 -0.2525 -0.0305  0.1256
13132W        W16730   9.112   3.585   9.848  0.1529  0.0303  0.0721
13133W        W16731   2.781   9.752  12.181 -0.0974  0.0590  0.1141
13134W        W16732   5.378   1.602   6.505  0.1012  0.2457  0.2374
13135W        W16733  13.362  14.792  14.146  0.1960  0.0635  0.0501
13136W        W16734   8.513  15.805   1.744  0.1580  0.6681 -0.0156
13137W        W16735  15.667  14.689   7.641  0.1777  0.1325  0.1004
13138W        W16736  12.671  10.125  13.781 -0.1000 -0.2123  0.1284
13139W        W16737  13.105  10.815   3.855  0.0042 -0.0609 -0.0003
13140W        W16738   0.418  13.117  12.502  0.0558  0.2688  0.0340
13141W        W16739  11.397   3.011   2.343 -0.0740 -0.0059  0.1257
13142W        W16740   5.299   1.891   5.026 -0.0782 -0.0629 -0.1765
13143W        W16741   4.111   2.454   3.835  0.2919 -0.2846 -0.2427
13144W        W16742   9.455   8.561   8.843  0.1780 -0.0505  0.0527
13145W        W16743   2.069   8.735   6.305 -0.1880 -0.0625 -0.0739
13146W        W16744  13.885   0.863  13.503  0.4481 -0.1736  0.0273
13147W        W16745   2.958   9.112   5.235 -0.0519  0.1830 -0.1254
13148W        W16746  14.392  15.498  14.612 -0.3638  0.1918  0.1318
13149W        W16747   3.023   8.042  10.756  0.0608  0.1817 -0.0999
13150W        W16748   7.549  10.353   8.868  0.2937  0.2064 -0.0336
13151W        W16749   6.433   0.043   0.755 -0.2468 -0.3375 -0.0121
13152W        W16750  10.489   1.519  13.921 -0.1226 -0.0018  0.0982
13153W        W16751   8.711  11.072   2.394 -0.1662 -0.0460 -0.2205
13154W        W16752   0.028   6.420   8.995 -0.1847 -0.1677  0.0965
13155W        W16753   4.589  12.702  15.571 -0.1980 -0.4541 -0.1824
13156W        W16754  15.616   3.807   0.414  0.2822  0.0371 -0.2197
13157W        W16755  11.831   7.256  15.388 -0.3743 -0.1644 -0.2385
13158W        W16756   5.250  16.134  11.568 -0.1582 -0.1703  0.1886
13159W        W16757   2.123   7.961  12.925  0.2286  0.0504 -0.2067
13160W        W16758  10.691  14.638  12.272  0.0499 -0.0084  0.2810
13161W        W16759   1.539   0.992  11.734  0.3021 -0.1290 -0.3398
13162W        W16760   0.837   6.816   1.227  0.0153  0.1051 -0.1810
13163W        W16761   3.033  15.829   7.251 -0.0087  0.0966 -0.1618
13164W        W16762   3.319  15.976  12.219  0.0312 -0.0146 -0.2486
13165W        W16763   9.546   7.694  15.746  0.0546  0.2040  0.0580
13166W        W16764   3.724  13.048   2.050 -0.4239 -0.3086  0.1292
13167W        W16765   1.459   7.138   3.510 -0.0029 -0.0191 -0.0874
13168W        W16766   2.320  13.544  13.010 -0.0010 -0.3407 -0.0755
13169W        W16767   0.879   8.677  12.270  0.1294 -0.0139  0.1168
13170W        W16768   3.731   0.894   6.542 -0.4803  0.1346 -0.3149
13171W        W16769   5.469  11.493  15.861  0.2302 -0.0067  0.0701
13172W        W16770   8.589   2.277   5.319  0.0387  0.1311 -0.2889
13173W        W16771   7.368  15.106  13.461  0.0607 -0.1062  0.0379
13174W        W16772  13.485   0.526  13.322  0.1179 -0.2340 -0.0632
13175W        W16773   1.680  10.954   2.833 -0.0433 -0.0541  0.0276
13176W        W16774   7.774   9.957  10.744 -0.1171 -0.1740  0.1198
13177W        W16775   3.786   1.274   1.535 -0.0254  0.1044 -0.1105
13178W        W16776   4.319   0.127   2.321  0.1102  0.2311 -0.1947
13179W        W16777   1.754  10.182   6.396 -0.0979  0.0767 -0.2322
13180W        W16778  14.809   8.660  16.026 -0.1708  0.2345  0.1038
13181W        W16779  14.097  14.725   5.625  0.4114 -0.2505  0.2152
13182W        W16780  14.303  14.081  11.887  0.1638  0.1596  0.2970
13183W        W16781  13.218   2.401   5.684 -0.0078  0.1078  0.0711
13184W        W16782   9.905   6.637  14.571 -0.0388 -0.0764  0.0378
13185W        W16783   5.319  14.832   3.388 -0.0787  0.2339  0.4131
13186W        W16784  15.540   6.361   5.741 -0.1983 -0.0739 -0.3968
13187W        W16785  12.341  15.898   6.716  0.1087  0.0079  0.0095
13188W        W16786  11.180   0.593  16.221  0.0674  0.2026 -0.0860
13189W        W16787   1.063  15.695  13.708  0.4483  0.0944  0.2253
13190W        W16788   6.041   5.356   7.985 -0.0704  0.2627  0.4314
13191W        W16789   4.964   6.590  14.097 -0.0685  0.1172 -0.0013
13192W        W16790   2.990   2.141  12.445  0.0713 -0.1205  0.0599
13193W        W16791   4.796  15.523   3.423  0.2029  0.0712 -0.1897
13194W        W16792   5.034  14.704   0.691  0.0541  0.0566  0.2144
13195W        W16793   4.353  10.120  10.452  0.0130 -0.0864 -0.1820
13196W        W16794   5.541   9.278   8.543 -0.0321 -0.0471  0.0220
13197W        W16795  15.524   0.255   8.171 -0.2854 -0.1010 -0.1224
13198W        W16796   3.659   7.702   3.720 -0.2928  0.0671 -0.1123
13199W        W16797   9.099   8.236   3.991 -0.0355 -0.0303  0.1080
13200W        W16798   4.676   3.807   7.773 -0.1392 -0.0093 -0.1434
13201W        W16799   0.042   8.640   8.579  0.1824  0.1466 -0.2244
13202W        W16800  10.818   7.528   3.815  0.1490  0.0530  0.2285
13203W        W16801   1.087  11.790   4.075  0.1978 -0.3505 -0.0799
13204W        W16802  15.080  11.632   6.461  0.3081  0.0419  0.0825
13205W        W16803  11.086   1.470  13.950 -0.1236 -0.2253  0.1255
13206W        W16804   3.488  12.297   5.379 -0.0521 -0.1225 -0.0287
13207W        W16805   0.318   4.621  12.121 -0.1209 -0.1462  0.0460
13208W        W16806   2.846   9.929  13.184 -0.2503  0.1130  0.0342
13209W        W16807  10.116   8.977   8.480  0.0079  0.2279 -0.2913
13210W        W16808  10.251   8.180   3.380  0.2058  0.0654  0.1954
13211W        W16809   5.924   7.981  16.074  0.4586  0.0787 -0.3954
13212W        W16810  14.749   5.452   1.881  0.1628 -0.0821 -0.1355
13213W        W16811   0.644  10.848   1.465  0.2500 -0.1138 -0.1668
13214W        W16812   8.210   2.283  10.559  0.0773  0.2774  0.0606
13215W        W16813   3.545   5.749  14.940  0.0815  0.0585 -0.1912
13216W        W16814   6.094   9.699   9.580 -0.1779  0.0858  0.0533
13217W        W16815  14.943   2.001   3.931  0.2731 -0.3202 -0.1615
13218W        W16816   8.734   3.795   8.929  0.2488  0.1535  0.3204
13219W        W16817  10.777   0.170   0.479 -0.2202  0.1712 -0.2718
13220W        W16818   5.716  13.932  10.669  0.3385 -0.3653 -0.0376
13221W        W16819  15.841   4.663  11.020  0.0203 -0.2811 -0.2868
13222W        W16820  15.360  12.140   2.203 -0.0206  0.0709  0.1022
13223W        W16821   5.536  11.799   4.108  0.2552 -0.1280  0.1232
13224W        W16822  12.944   4.672  16.051 -0.1023  0.0610 -0.1582
13225W        W16823   5.918  13.397   2.991  0.0368  0.1235 -0.0140
13226W        W16824   4.137  10.214  14.730 -0.0744 -0.3044 -0.3346
13227W        W16825  15.409  10.219   6.081 -0.0113  0.0011  0.0383
13228W        W16826   7.994  10.595   8.876 -0.1677 -0.2013 -0.0879
13229W        W16827   8.898   7.545   4.094  0.1494  0.4117 -0.4018
13230W        W16828  12.185   4.836   0.197  0.0389  0.4239 -0.1608
13231W        W16829   1.987   7.934   1.998 -0.1276  0.1116 -0.1023
13232W        W16830  16.292   0.666   0.308 -0.1470 -0.2942 -0.3355
13233W        W16831  13.931   8.229   7.717  0.0149 -0.0391 -0.1762
13234W        W16832   6.222   7.736   4.515 -0.1521 -0.1398 -0.0981
13235W        W16833  13.877   3.808  10.577  0.4296 -0.1566  0.1883
13236W        W16834   8.903   5.829   6.015  0.2371  0.0505  0.1107
13237W        W16835   8.666   6.596   2.495 -0.1085 -0.0778  0.1790
13238W        W16836   3.569  14.515   8.229 -0.2201  0.1616 -0.3443
13239W        W16837  14.335  11.922   3.140  0.0746  0.0043  0.0880
13240W        W16838   7.205   1.625   1.053 -0.1155 -0.2656  0.0986
13241W        W16839   4.894  10.835   1.155 -0.0160  0.2858  0.1381
13242W        W16840  13.818  14.969  15.753 -0.2474 -0.1388 -0.1490
13243W        W16841  10.527   1.367   4.489  0.1635 -0.0558  0.0275
13244W        W16842  13.348   7.563  11.388  0.3734  0.1969 -0.1281
13245W        W16843   0.118  15.751  16.386  0.0803  0.2175  0.0356
13246W        W16844   2.157  16.358   4.772  0.0917  0.2095 -0.0349
13247W        W16845   6.390   9.205  15.379  0.0633  0.1695 -0.2860
13248W        W16846   1.355  11.290  13.032  0.1043  0.2546  0.3268
13249W        W16847   8.585  14.079   9.310  0.2963 -0.0120 -0.0301
13250W        W16848   1.702   3.282   4.670  0.1288 -0.4286 -0.1879
13251W        W16849   3.905   7.294   9.736 -0.0782 -0.2434 -0.1896
13252W        W16850  14.982   2.188   8.875  0.1949 -0.2479  0.1143
13253W        W16851   3.042   3.177   6.439 -0.0559 -0.2288 -0.1340
13254W        W16852   1.674  15.631  14.148  0.2051 -0.0663 -0.0283
13255W        W16853   8.809   0.191  16.353  0.0772  0.0457 -0.4818
13256W        W16854  13.524   3.863   8.347  0.0949  0.0243 -0.1127
13257W        W16855   1.600   0.522   7.284  0.0144 -0.2452  0.3204
13258W        W16856   3.701   8.429  10.937  0.3326  0.2698  0.2331
13259W        W16857   3.455   9.360   0.281  0.0885 -0.1938  0.0098
13260W        W16858   9.918  14.746  14.278 -0.0998 -0.1577 -0.0713
13261W        W16859   8.753  13.815   8.929  0.0560  0.1991  0.0176
13262W        W16860  15.467  10.656   3.811 -0.2831  0.2343  0.2258
13263W        W16861  12.057   0.045  10.224 -0.1240  0.2284  0.1517
13264W        W16862   7.108  12.985   1.817 -0.0379 -0.0818  0.0218
13265W        W16863   9.709  10.953  11.074  0.0330  0.5077 -0.2407
13266W        W16864  12.634   1.754   7.433  0.0355  0.1328  0.0459
13267W        W16865  15.895   8.809   6.141  0.1809  0.1347 -0.1542
13268W        W16866  15.697   1.256   1.051 -0.1674  0.0272 -0.1741
13269W        W16867  16.284   4.029  15.409  0.0077  0.0549  0.1568
13270W        W16868   0.531   7.646   6.714 -0.1722 -0.1425  0.0977
13271W        W16869   3.537  13.198  15.170  0.1284 -0.0800  0.1228
13272W        W16870  13.138   1.147  10.960 -0.0064 -0.4007  0.0088
13273W        W16871   6.530  13.089   4.224  0.1055  0.0799 -0.0554
13274W        W16872  11.164  12.248   3.885  0.3518  0.2260 -0.1163
13275W        W16873   1.138   9.344   6.588  0.2910 -0.1981  0.0544
13276W        W16874  12.058  15.433  15.481 -0.0096  0.4206 -0.0328
13277W        W16875  16.371  14.422   8.641  0.1872 -0.2422  0.0897
13278W        W16876   7.497  14.242  11.563 -0.1764  0.0801 -0.2850
13279W        W16877  15.928   3.130   1.679  0.1097 -0.2498  0.0981
13280W        W16878   4.515   5.966  16.182  0.0328  0.2008  0.0394
13281W        W16879   5.292  15.674   1.867 -0.2016 -0.1686  0.1295
13282W        W16880   6.593  12.177   8.024 -0.5416  0.2404  0.0641
13283W        W16881  14.256   8.437  14.361 -0.1943  0.2311 -0.1757
13284W        W16882   9.761  14.104   3.403 -0.0248 -0.0261  0.1060
13285W        W16883   5.711  15.352   1.934  0.2173 -0.0616 -0.1821
13286W        W16884  16.195   2.986   4.245 -0.0231 -0.2572  0.1178
13287W        W16885   1.409   5.962   2.435  0.0187 -0.0363 -0.1296
13288W        W16886  15.020   2.833  14.242 -0.1911  0.0194 -0.0523
13289W        W16887   3.520   8.706   6.667 -0.1623 -0.0243 -0.4282
13290W        W16888   6.523  10.702  12.671  0.2221 -0.1108  0.0201
13291W        W16889   7.820   7.760   1.819  0.0569 -0.0961  0.1197
13292W        W16890  10.266  15.741   6.102  0.0562 -0.0013  0.1003
13293W        W16891   6.556  13.502  13.942  0.0109 -0.0734 -0.1180
13294W        W16892   3.884  10.681  11.437 -0.0119 -0.1796 -0.3054
13295W        W16893   0.304  10.186   6.392  0.1172 -0.1287 -0.1049
13296W        W16894  15.397  10.265  16.287  0.1328 -0.0384 -0.3191
13297W        W16895   1.591  14.409   3.853 -0.1644 -0.1001 -0.0054
13298W        W16896   2.694  12.822   4.660 -0.0458  0.2438 -0.3121
13299W        W16897  13.297  12.731   6.492 -0.1229  0.3121 -0.3597
13300W        W16898   5.966   6.455   0.733 -0.1275 -0.0107 -0.1563
13301W        W16899   3.347   5.879   2.111 -0.1604  0.0672  0.0672
13302W        W16900  11.654   1.839   5.404 -0.0927 -0.0342  0.0660
13303W        W16901  11.903   2.728  10.346 -0.1538  0.0291  0.1829
13304W        W16902   0.067  13.734   8.937 -0.3722  0.1992  0.1480
13305W        W16903  16.091   2.517   4.015 -0.2958 -0.0527  0.1016
13306W        W16904   4.526  15.177  15.030 -0.0299 -0.0810  0.1862
13307W        W16905  14.336   0.518  12.083  0.0363  0.0172  0.2581
13308W        W16906   8.522   0.749   8.772 -0.1190 -0.1387 -0.3244
13309W        W16907   4.809   2.932   7.906  0.1324 -0.0269 -0.0383
13310W        W16908  16.037  16.117   3.979  0.1762  0.0896  0.1875
13311W        W16909   4.288   7.498   4.428  0.1151  0.2965 -0.2168
13312W        W16910   4.143  11.811   8.785 -0.1583  0.1675  0.1130
13313W        W16911   1.785  13.265   9.709  0.1572 -0.1522  0.0435
13314W        W16912   1.270   0.274   1.701 -0.1008  0.0043 -0.0319
13315W        W16913  12.960   3.665  10.245 -0.1231 -0.1992 -0.1717
13316W        W16914   4.649   1.849   8.281 -0.0249  0.0305  0.2742
13317W        W16915   7.861  11.023   1.172 -0.1882  0.1445  0.2400
13318W        W16916   0.160  10.285   2.209  0.2486  0.3191 -0.0151
13319W        W16917   9.204  12.270  12.065  0.2344  0.0176 -0.2796
13320W        W16918   7.249   7.868  12.100  0.0076  0.1736  0.4602
13321W        W16919   4.541   1.492   6.367 -0.0262 -0.1674 -0.2925
13322W        W16920   4.468   0.526  15.043 -0.0784 -0.1087  0.2311
13323W        W16921   9.709   7.041  10.691 -0.0020 -0.0684  0.0175
13324W        W16922   6.662   9.178   0.059 -0.0177  0.2330 -0.1362
13325W        W16923   9.596   6.379  13.260 -0.1947 -0.0496  0.1748
13326W        W16924   3.338   3.500   3.436  0.1461  0.3362 -0.0660
13327W        W16925  12.804   7.803  12.520 -0.1555  0.0554  0.2225
13328W        W16926  11.923   8.346   8.919  0.0427 -0.1233 -0.1234
13329W        W16927   8.551   4.541  10.070  0.3217  0.1275  0.1138
13330W        W16928   9.871   2.709   3.308 -0.3741  0.0887  0.0125
13331W        W16929  15.914   1.779   1.261  0.0160  0.1215 -0.1076
13332W        W16930   4.440   1.384  15.876 -0.3213  0.1096 -0.2253
13333W        W16931   2.295   4.335   1.812 -0.2274 -0.1038 -0.4088
13334W        W16932   3.423  11.939   4.540 -0.0075  0.0294 -0.2070
13335W        W16933   4.126   4.425   9.522  0.2731 -0.1281 -0.3608
13336W        W16934   4.610  10.437   2.467  0.1798  0.0077 -0.1435
13337W        W16935  13.965   0.146  12.081 -0.2017  0.2658 -0.2201
13338W        W16936   1.541  13.447   0.758 -0.3678  0.0792 -0.2680
13339W        W16937   6.451   0.966   2.786  0.3382 -0.2387 -0.2212
13340W        W16938   8.654   3.580   0.635  0.0396  0.0230 -0.0348
13341W        W16939  16.139  13.283  15.743  0.0711 -0.0914 -0.0798
13342W        W16940  11.743  13.277   9.810 -0.0793 -0.0127  0.1364
13343W        W16941   1.958  12.830  14.010 -0.2227  0.0047 -0.4550
13344W        W16942  14.687   4.445   1.047 -0.2445  0.1105  0.1982
13345W        W16943  15.090   3.691   4.369  0.2523 -0.1139  0.1486
13346W        W16944   8.712  15.081   3.181 -0.0170 -0.0482 -0.1303
13347W        W16945  11.354   8.657  16.101 -0.1974  0.1925  0.0966
13348W        W16946  14.206  13.878   3.033  0.1247 -0.4422 -0.4040
13349W        W16947  12.793   5.702   7.293  0.0567 -0.0293 -0.1066
13350W        W16948   2.918   7.492   0.617 -0.1677  0.0978  0.3594
13351W        W16949   8.671   1.182  16.061 -0.0180 -0.0006  0.2378
13352W        W16950   4.177  14.123   6.933  0.0967 -0.2771  0.1053
13353W        W16951   7.273  11.452   6.900 -0.2899 -0.1217  0.2124
13354W        W16952  12.931   6.487  10.534 -0.2642 -0.0309  0.0260
13355W        W16953  11.765   2.373  13.336  0.3622  0.3275  0.0214
13356W        W16954  11.809   6.909  11.989  0.0805 -0.1097  0.0475
13357W        W16955   1.738   4.404  12.661  0.0036  0.3121  0.2225
13358W        W16956   5.651  15.105   2.355 -0.0529  0.0300  0.1026
13359W        W16957  11.565  15.681   7.496  0.1854 -0.3314  0.1245
13360W        W16958   4.432  10.026   6.741  0.0016 -0.1169  0.0840
13361W        W16959   1.018  10.010   2.096 -0.1586 -0.1914  0.2745
13362W        W16960   4.512   8.153  13.281  0.0239  0.1170 -0.1311
13363W        W16961   9.053  12.265  15.208  0.2077 -0.1191  0.2609
13364W        W16962  11.317   8.825   9.411  0.4301 -0.0769  0.0794
13365W        W16963  14.049   6.993   9.887  0.0396 -0.0025  0.0541
13366W        W16964  12.743   8.801   1.196 -0.0523  0.2113 -0.1724
13367W        W16965   2.032  11.313  13.802  0.0776 -0.3298 -0.0481
13368W        W16966  15.611  13.601   0.769 -0.1550 -0.0167  0.0927
13369W        W16967   8.659   4.395   7.988 -0.2433  0.3434 -0.1373
13370W        W16968   7.221   3.577  13.373 -0.0940  0.1784  0.2143
13371W        W16969  10.158   7.899  15.297 -0.3820 -0.0151  0.1064
13372W        W16970   3.742   2.200   2.506 -0.0531  0.2682 -0.1241
13373W        W16971   5.619   8.640  15.650 -0.2962 -0.0792  0.0256
13374W        W16972  13.364   4.337  14.261  0.0999 -0.0871  0.1106
13375W        W16973  10.975  14.700  10.445 -0.1841 -0.0666  0.3857
13376W        W16974   1.502   2.267   0.762  0.1450  0.0355  0.0278
13377W        W16975   7.925  15.659   0.084 -0.0649 -0.0948 -0.0387
13378W        W16976   8.002  13.294  15.174  0.3348  0.1972 -0.2384
13379W        W16977   8.358   0.851   1.774 -0.1084 -0.0075  0.0895
13380W        W16978  14.251  10.033   4.152 -0.0294  0.1944  0.0557
13381W        W16979  10.261   0.388   8.509  0.1249  0.0581 -0.2784
13382W        W16980  15.862   4.593   5.020  0.5096 -0.1266  0.1260
13383W        W16981   5.873   1.358   6.369  0.1666 -0.0212 -0.1080
13384W        W16982   0.430   5.841  14.423 -0.1070  0.1167 -0.1708
13385W        W16983   1.850   3.732   7.665 -0.1103 -0.2362 -0.2434
13386W        W16984   5.466   8.048  14.488  0.3212 -0.1005  0.2046
13387W        W16985  10.129   1.319   5.305 -0.2043 -0.0135  0.2285
13388W        W16986  11.479   5.586   4.100  0.0817 -0.2399 -0.0396
13389W        W16987  14.314   6.864   0.736  0.3655  0.0161 -0.0645
13390W        W16988   9.621   6.537   3.946 -0.1221  0.0828 -0.2913
13391W        W16989   6.817   7.285   5.623 -0.3296 -0.0408  0.0989
13392W        W16990  15.068   4.503   0.739  0.1246  0.0405  0.3169
13393W        W16991   0.241   7.868  16.032  0.2801 -0.0308  0.1564
13394W        W16992   6.171  12.722   1.779  0.0653  0.3162 -0.1010
13395W        W16993  13.652  14.526   4.758 -0.0406  0.0067  0.1304
13396W        W16994  13.506   9.448   2.097 -0.1292  0.0099 -0.4346
13397W        W16995  11.933   9.918   0.686  0.0126  0.3490  0.0053
13398W        W16996   7.601  12.146  11.411 -0.0370  0.0144 -0.0686
13399W        W16997  13.072   2.515  12.835 -0.4570  0.0764 -0.2714
13400W        W16998   2.161   7.750   4.477  0.1045  0.0673 -0.0711
13401W        W16999   7.152   8.762  13.979 -0.1984 -0.0431  0.2728
13402W        W17000   9.673   9.677   2.739 -0.1169 -0.1953  0.3997
13403W        W17001   4.577   3.215  10.551 -0.1998  0.0620 -0.2311
13404W        W17002  12.373   5.051   9.796  0.1512  0.0981 -0.0211
13405W        W17003  12.851  15.868   8.777 -0.0456  0.0357 -0.1060
13406W        W17004  14.589   7.875   8.427 -0.1845  0.0470 -0.0376
13407W        W17005   4.089   3.100  15.114  0.0788  0.1383 -0.0775
13408W        W17006  13.189   5.275   8.068  0.0050 -0.0537  0.0520
13409W        W17007   0.723   4.446  11.272  0.1294  0.0801  0.0700
13410W        W17008  16.217   4.515   0.340 -0.2025  0.0745  0.0872
13411W        W17009   5.363   9.783  13.443 -0.0444 -0.1062  0.2127
13412W        W17010   2.041   4.559  13.364  0.0086 -0.2607 -0.0301
13413W        W17011   8.621  10.803   1.088 -0.1556  0.0011 -0.1046
13414W        W17012   4.753   0.028   4.578  0.0668 -0.1326 -0.0459
13415W        W17013   0.168   1.884   7.695  0.0276  0.1670 -0.0710
13416W        W17014   1.664  10.266   2.609 -0.0246  0.1951 -0.0393
13417W        W17015   8.450  13.418   5.369 -0.1859 -0.0135 -0.0303
13418W        W17016   8.631   7.945  16.210 -0.1336  0.2582  0.0939
13419W        W17017   4.546  13.839  13.373 -0.3800  0.2416 -0.0279
13420W        W17018  15.485   6.349   3.206  0.1034  0.2792  0.0941
13421W        W17019  13.525   2.304  11.484 -0.0610  0.0773 -0.3334
13422W        W17020   3.029   1.512   8.459 -0.0529 -0.0720 -0.1493
13423W        W17021   2.224   6.305  15.052 -0.5541  0.1471 -0.0973
13424W        W17022  13.163   4.005  15.136 -0.3630  0.0432  0.1165
13425W        W17023   1.391   4.088   7.770 -0.0575  0.0985  0.0598
13426W        W17024   2.676   2.982   7.701  0.0424 -0.2320 -0.0934
13427W        W17025   8.602   1.080   5.728 -0.1979  0.0418 -0.0106
13428W        W17026  12.576  11.155   9.383  0.1629  0.2154  0.0852
13429W        W17027  15.920  11.366   7.183 -0.0312  0.1940 -0.1402
13430W        W17028  11.656  10.284  10.191 -0.4576 -0.2474 -0.0100
13431W        W17029  10.981  14.238  15.022 -0.0519 -0.2750  0.0092
13432W        W17030   0.828   4.962  15.731  0.0441  0.1090  0.0708
13433W        W17031  12.773   7.199  13.202  0.0226  0.0360 -0.2872
13434W        W17032  14.291   7.324   7.545  0.3479 -0.1064  0.1042
13435W        W17033   0.968   6.552  12.901 -0.1384 -0.0157  0.0204
13436W        W17034  14.975   5.268  12.264 -0.1007  0.1543  0.3243
13437W        W17035  10.029  11.355   2.592 -0.0123 -0.1980 -0.4536
13438W        W17036   5.383   3.334  15.243 -0.3429 -0.0189  0.3090
13439W        W17037   9.548  12.811   3.881 -0.0546  0.0041  0.0525
13440W        W17038  12.877   4.328   6.649 -0.1147  0.2277 -0.0306
13441W        W17039  12.081   3.366  15.050 -0.1288 -0.1448  0.1318
13442W        W17040   3.731   5.252  11.731 -0.2269 -0.3468  0.2279
13443W        W17041  14.776  10.964  12.707  0.1345 -0.1138 -0.0628
13444W        W17042   7.403   4.807   2.531 -0.0628 -0.3361 -0.0081
13445W        W17043   6.075   7.269  14.183  0.2670  0.1937  0.1463
13446W        W17044   9.152   4.734   2.936 -0.1482  0.0378 -0.1659
13447W        W17045   6.414   7.597  11.326 -0.0759 -0.1131 -0.1432
13448W        W17046   8.615  14.198  10.047 -0.1225 -0.1773 -0.2008
13449W        W17047  10.057   8.655   9.773  0.1922 -0.2217  0.0675
13450W        W17048  12.968   4.296   4.383 -0.1590 -0.2973  0.3539
13451W        W17049   4.765  12.490  15.988  0.1759 -0.1750  0.0947
13452W        W17050   4.131   9.723   1.168  0.0694 -0.0279  0.0511
13453W        W17051   0.882  14.852   1.377  0.0695 -0.0091 -0.3080
13454W        W17052   0.946   0.803  11.729  0.1003 -0.0043  0.1726
13455W        W17053  13.707   3.948  12.319 -0.1395  0.1054 -0.0214
13456W        W17054  10.586   2.696   4.868  0.1572  0.0515  0.0343
13457W        W17055  10.955   6.731  10.779  0.1393  0.0200 -0.0614
13458W        W17056   6.411   2.669   5.175 -0.0625 -0.2410  0.0115
13459W        W17057   5.428  13.540  12.605  0.1421 -0.1082  0.3984
13460W        W17058  10.352   0.645  10.434 -0.0221 -0.1483 -0.0995
13461W        W17059   0.395   7.247   3.829 -0.0042  0.0717 -0.0899
13462W        W17060   8.147   8.337   7.033  0.0897 -0.0987 -0.1394
13463W        W17061  11.669   6.200  12.430  0.2430 -0.2299 -0.0671
13464W        W17062  14.609  11.556   5.848 -0.1162  0.1517 -0.0060
13465W        W17063   8.154   9.569   4.677  0.1824 -0.1142 -0.2135
13466W        W17064   5.053   6.484   0.565  0.3619  0.1900  0.0320
13467W        W17065   6.353   9.683   6.616  0.1543 -0.0229 -0.0875
13468W        W17066  15.331   7.914   1.730  0.0706 -0.0632 -0.0963
13469W        W17067   7.541   4.508  11.858  0.1298 -0.2011 -0.0167
13470W        W17068   8.985   4.255  10.705 -0.1293  0.1717  0.1301
13471W        W17069   9.033  11.683   5.820 -0.2175 -0.0295  0.0770
13472W        W17070   9.091   7.791  15.977  0.3347 -0.1534 -0.0653
13473W        W17071  15.828  12.214   2.745  0.0166  0.0295 -0.0170
13474W        W17072  12.509  15.258  15.133  0.0897  0.0412 -0.0448
13475W        W17073  13.984   4.855   6.072  0.1954  0.0021  0.2214
13476W        W17074  16.152   8.524   3.359 -0.2018 -0.0254 -0.1759
13477W        W17075   6.214   2.424   7.382 -0.1642  0.2274  0.1237
13478W        W17076   5.287   7.460   1.657 -0.1908 -0.0624 -0.0774
13479W        W17077   5.208   1.051  11.991  0.0344 -0.0152  0.1596
13480W        W17078  11.422   6.844  11.158  0.1320  0.0917  0.2146
13481W        W17079   5.357   2.098  14.406 -0.1624  0.0112 -0.3127
13482W        W17080   6.699   6.237   7.762 -0.1170 -0.5137 -0.1848
13483W        W17081   6.477   9.620   1.957 -0.2515 -0.0212 -0.2565
13484W        W17082  15.864  14.019  14.241  0.0662 -0.1971 -0.1153
13485W        W17083   0.993   7.248   3.697 -0.0415 -0.2158  0.0133
13486W        W17084  11.516   4.493   6.914 -0.1852  0.0911  0.2291
13487W        W17085   0.420   9.253  14.383 -0.1339  0.2468 -0.0210
13488W        W17086   9.040  11.532   7.952  0.2297  0.1587  0.2070
13489W        W17087   0.499   0.022   4.776 -0.3701 -0.2470 -0.0535
13490W        W17088   3.465  15.860  13.712 -0.1374 -0.2372 -0.0173
13491W        W17089   9.020   8.045   6.974  0.0945 -0.4151  0.0592
13492W        W17090  16.177   3.228   8.816 -0.1449  0.1804 -0.1442
13493W        W17091  13.466   5.414   0.838 -0.1546  0.1806  0.2596
13494W        W17092  13.385   6.955   2.476  0.3582  0.1492  0.0684
13495W        W17093   3.852   0.603  10.636 -0.2871 -0.2041  0.0684
13496W        W17094   3.974   8.893  14.554  0.1465  0.3700  0.2634
13497W        W17095   7.285   7.997   6.401  0.2169  0.1106  0.0786
13498W        W17096   4.188   9.632  16.314  0.1146 -0.0208  0.0878
13499W        W17097  13.356  11.535   1.177 -0.4559  0.0428 -0.2181
13500W        W17098   5.390   3.825  10.554 -0.1623 -0.0953 -0.1883
13501W        W17099   7.872   4.659  15.092 -0.1235  0.6725 -0.1267
13502W        W17100   1.196   3.489  13.397 -0.2850 -0.2924 -0.2794
13503W        W17101  14.680  14.482   2.647  0.0902 -0.2867  0.1358
13504W        W17102  15.642  15.367  15.893 -0.0191 -0.0682 -0.1868
13505W        W17103   3.394   9.808   1.682  0.1279 -0.0299  0.0120
13506W        W17104   7.545  14.785  13.842 -0.5294 -0.2576 -0.3284
13507W        W17105  11.343  15.705  13.798  0.2771  0.1716  0.0425
13508W        W17106   1.549   2.560   2.403  0.3107 -0.1477 -0.0060
13509W        W17107   5.639   1.199  15.374  0.1980  0.1514  0.1437
13510W        W17108   7.931  11.415  15.949  0.0463 -0.1810  0.1945
13511W        W17109   5.210   0.162   4.989  0.0249 -0.3779  0.1914
13512W        W17110  16.191   6.227   6.641  0.0343  0.3793  0.3580
13513W        W17111   9.999  15.889   0.605  0.0142 -0.1088  0.1326
13514W        W17112  11.811   8.213  10.173  0.1927 -0.0875 -0.0410
13515W        W17113   2.452  12.632   9.335  0.1072 -0.0303 -0.1127
13516W        W17114  13.350   9.192   9.100 -0.0234 -0.0713 -0.3189
13517W        W17115   8.308   9.275   2.548  0.0291  0.0317 -0.1974
13518W        W17116   9.328   3.132   6.370 -0.1434 -0.3872 -0.1564
13519W        W17117   2.899   1.253  12.435 -0.1365  0.0232 -0.1601
13520W        W17118   4.923   4.018   9.964  0.2245 -0.1255 -0.1411
13521W        W17119   6.971  12.638  13.424  0.0871 -0.2283  0.0261
13522W        W17120   4.895   1.581   9.824  0.0458  0.3152 -0.0829
13523W        W17121  11.854  16.220   7.890 -0.2811 -0.2687 -0.0272
13524W        W17122   9.646   3.450  11.329 -0.1131 -0.0245 -0.1813
13525W        W17123  11.840  14.116  10.380  0.0658 -0.0633  0.0745
13526W        W17124  15.237   1.250   6.298 -0.1425 -0.1084 -0.1413
13527W        W17125  15.755  11.995   8.043  0.0362 -0.0911 -0.1830
13528W        W17126   4.978   3.484   5.031  0.2357 -0.1104  0.2187
13529W        W17127   4.237  13.225   0.574 -0.2237 -0.3940 -0.2407
13530W        W17128   7.449   8.090   1.630 -0.0934 -0.0934  0.1122
13531W        W17129  16.249  11.417   6.859 -0.3102 -0.1076 -0.0706
13532W        W17130   9.378  14.698  15.406  0.4297  0.0875 -0.1881
13533W        W17131   6.824   4.351   2.563 -0.3352  0.0183  0.4838
13534W        W17132   2.569   4.567  16.042  0.1442 -0.2984  0.0425
13535W        W17133   1.122  12.029   4.946  0.0401  0.0632  0.4906
13536W        W17134  15.043  11.656   5.458 -0.0545  0.4208 -0.1690
13537W        W17135   9.111   4.346   3.738  0.0181  0.2555 -0.2838
13538W        W17136   7.710  12.890   0.310 -0.0019 -0.0226  0.2346
13539W        W17137   6.736  11.208  12.179 -0.0553 -0.2998 -0.1068
13540W        W17138  12.018   3.508  15.530  0.1886  0.0785  0.0922
13541W        W17139  15.250   1.395  11.709 -0.0867 -0.0797 -0.1390
13542W        W17140  16.325   7.929   7.161  0.1378  0.2894 -0.1037
13543W        W17141   4.367  16.106  12.781 -0.1426 -0.0728  0.1289
13544W        W17142  13.803   0.418  14.261 -0.1918 -0.3946 -0.0875
13545W        W17143   0.885   5.026  11.570 -0.0353 -0.2457  0.3402
13546W        W17144   9.008  15.917   6.537  0.1336  0.1131  0.0183
13547W        W17145   5.345  11.007   2.239  0.1226  0.0847 -0.2137
13548W        W17146  11.386  14.761   3.081 -0.1130  0.2193 -0.3813
13549W        W17147   6.843   6.404   5.332 -0.1401  0.1494  0.0689
13550W        W17148   2.180  11.470   7.434 -0.4570  0.4577 -0.1017
13551W        W17149   8.635   9.510  13.482 -0.3125  0.1462 -0.1747
13552W        W17150   6.410   5.032   2.839 -0.0759  0.0155  0.0016
13553W        W17151   9.219  13.940  12.321 -0.3613 -0.1640 -0.1125
13554W        W17152   1.715   2.366   5.277  0.4048  0.2417  0.0541
13555W        W17153   1.321   0.881  10.195 -0.1314 -0.1365 -0.3577
13556W        W17154   3.934   4.778  11.860 -0.0593 -0.0363 -0.1062
13557W        W17155   6.115  15.484   1.590  0.3045 -0.1040  0.1672
13558W        W17156  14.711  11.337   5.298 -0.1395  0.1786  0.0766
13559W        W17157  16.284   3.742  11.189 -0.1677  0.2829 -0.0530
13560W        W17158  12.192  13.839   2.839 -0.0114 -0.1428 -0.2562
13561W        W17159   6.323   7.224   5.815  0.0146  0.0706  0.3387
13562W        W17160   8.218   1.247   9.609 -0.3186 -0.1066  0.0482
13563W        W17161   1.670  14.294  14.035  0.3333  0.0507  0.0393
13564W        W17162  15.956   0.070  10.452 -0.2305  0.2764 -0.1559
13565W        W17163   2.081   1.224   3.359  0.0837  0.0030  0.1230
13566W        W17164  11.725   0.505   7.315 -0.0401 -0.1328  0.1068
13567W        W17165   2.613   9.222  15.013 -0.2053  0.1505 -0.0253
13568W        W17166   3.921  16.134   7.543 -0.0857  0.1498 -0.0851
13569W        W17167   2.049  13.096   2.975 -0.0888  0.0560 -0.1029
13570W        W17168  11.500  13.049   8.996  0.1432 -0.0213 -0.1211
13571W        W17169   5.268  10.470   0.318  0.0017 -0.0223 -0.1525
13572W        W17170   1.678   6.274   7.805  0.3190  0.1065 -0.2895
13573W        W17171  12.970   4.986   1.001  0.2188 -0.2175 -0.1146
13574W        W17172   7.049   5.972  11.973  0.2262 -0.0479 -0.2582
13575W        W17173   6.002   2.061  10.795 -0.1342 -0.2434 -0.0321
13576W        W17174  11.376  10.261   3.304  0.3149  0.4136  0.2522
13577W        W17175   0.322   3.766   3.277 -0.1419 -0.0330 -0.0351
13578W        W17176   6.793   6.114   4.184 -0.1945  0.0183  0.2490
13579W        W17177   2.312  15.097   6.062  0.1781 -0.4752  0.1919
13580W        W17178  11.959   4.513  13.403 -0.1058 -0.1378 -0.0021
13581W        W17179  14.078   1.838   5.090  0.2302 -0.1601 -0.3730
13582W        W17180   3.008   6.994   7.381  0.1648 -0.2005  0.2203
13583W        W17181  13.453  15.428   5.697 -0.1846 -0.1645  0.1864
13584W        W17182  15.337   0.838  15.481 -0.1534 -0.3051  0.1976
13585W        W17183   2.201   6.166   7.971 -0.1910 -0.0484 -0.0850
13586W        W17184   9.380  11.254  10.876  0.0810  0.2472  0.2006
13587W        W17185  14.697  11.021   8.676  0.1023  0.0951 -0.0555
13588W        W17186   2.395  15.386   3.111 -0.0155 -0.1527 -0.2983
13589W        W17187  13.310  16.102  12.743  0.2102  0.2177  0.0637
13590W        W17188   0.174  10.581  11.827  0.1262 -0.0406  0.1322
13591W        W17189   3.074  12.215  13.013 -0.0843  0.3502  0.2064
13592W        W17190  14.306   9.789  15.886  0.2136  0.1511  0.1379
13593W        W17191  12.537  11.605   8.492  0.2366  0.0800 -0.1192
13594W        W17192   5.612   8.243   5.961 -0.2337 -0.0766 -0.0439
13595W        W17193   3.919   0.919   0.575  0.0897  0.0283  0.0658
13596W        W17194  13.603   4.548   8.291  0.2821  0.1346 -0.1144
13597W        W17195   6.730   3.785   5.217 -0.2688 -0.2380  0.1600
13598W        W17196  12.700   9.008   8.962  0.2208 -0.2391  0.2379
13599W        W17197   4.215  11.248   6.049 -0.2924  0.1947 -0.0488
13600W        W17198   5.340   6.305   9.079  0.2089 -0.3082 -0.0269
13601W        W17199   5.443   2.366   9.733 -0.1089 -0.0453  0.0124
13602W        W17200   7.564   1.086  13.136 -0.0189 -0.0733 -0.0339
13603W        W17201  13.333   9.935  14.641  0.2183  0.2829  0.0890
13604W        W17202   5.141  15.937  11.102 -0.4422 -0.2193 -0.1561
13605W        W17203   1.802   0.611   5.545 -0.0766 -0.0134  0.0532
13606W        W17204  12.918   6.977   4.283 -0.1216 -0.1452  0.0717
13607W        W17205   2.235   2.112   2.943 -0.4017  0.0280 -0.0682
13608W        W17206  14.591   4.990  12.465  0.0280 -0.0365  0.0858
13609W        W17207   4.732   9.834  11.822  0.0831  0.0128  0.0986
13610W        W17208   2.424  16.158  15.097  0.0859 -0.1076 -0.3732
13611W        W17209  15.330   0.749  11.072  0.0497 -0.0212 -0.0524
13612W        W17210   5.849   8.910  12.181 -0.2094 -0.5385 -0.0525
13613W        W17211  11.159   6.994   3.128  0.0796  0.0119 -0.2004
13614W        W17212   9.080   8.864  10.193 -0.1296 -0.3099  0.3515
13615W        W17213  12.608   1.470  11.865  0.1286 -0.3085  0.2682
13616W        W17214   2.515   3.922   0.363  0.0199 -0.0489 -0.0802
13617W        W17215  13.169   4.769   8.112 -0.2188  0.1428 -0.4220
13618W        W17216  14.655   5.798   0.805  0.1187  0.0088  0.0643
13619W        W17217  11.190   2.174  11.647  0.1310 -0.0638 -0.1569
13620W        W17218   5.577   1.594   7.388 -0.1075  0.1202 -0.1586
13621W        W17219   7.360   6.112   4.763 -0.1498  0.2121 -0.0170
13622W        W17220  16.011   3.879   4.540 -0.1856  0.0041 -0.2691
13623W        W17221   1.592  16.348   3.926 -0.3606 -0.1481  0.1198
13624W        W17222  15.981  12.917   7.248 -0.1263  0.1440 -0.0527
13625W        W17223   5.224  11.189   8.587  0.0010  0.0487  0.1587
13626W        W17224  15.990   1.763   6.353 -0.1744 -0.1385 -0.0089
13627W        W17225   9.150   7.987  12.961 -0.1382  0.0946  0.1461
13628W        W17226   5.431   4.696  15.199  0.2446  0.2866  0.0102
13629W        W17227   8.152   2.787  10.389 -0.0023 -0.0664  0.3789
13630W        W17228   3.183   5.507   0.834 -0.2491  0.0203 -0.2340
13631W        W17229  13.746   2.733  16.224  0.3059 -0.0777  0.1133
13632W        W17230   9.450   6.990   1.138  0.2371 -0.1623  0.4888
13633W        W17231   8.502   4.305   6.455 -0.2188  0.2288  0.0075
13634W        W17232  11.562   0.246  11.529  0.2832  0.1945  0.1857
13635W        W17233  16.359   0.230  10.683 -0.0388  0.0171  0.0514
13636W        W17234  14.153  13.863  11.427 -0.0236 -0.3496 -0.0911
13637W        W17235  15.581   1.701   9.635 -0.0971  0.0093  0.2480
13638W        W17236   1.279  14.854   8.600 -0.1025 -0.1282 -0.0463
13639W        W17237  15.903   6.278   7.773  0.0048  0.0669 -0.1743
13640W        W17238  15.206  10.482  13.723 -0.1050  0.0736 -0.2319
13641W        W17239   3.211   0.481   4.720 -0.0533  0.0731 -0.0036
13642W        W17240  11.386   4.834   0.647  0.0892  0.0933 -0.0440
13643W        W17241   5.704  15.358   5.861 -0.0586  0.2573 -0.0081
13644W        W17242   6.609  11.324   8.977  0.1274 -0.3293  0.0329
13645W        W17243   7.848   3.400   9.406  0.2250  0.1502  0.1822
13646W        W17244   4.363   5.134   1.635 -0.2901  0.0436 -0.0990
13647W        W17245   1.512   9.869   1.863 -0.2860  0.2671 -0.1739
13648W        W17246   0.612   5.536   0.386  0.1031  0.0361 -0.0866
13649W        W17247  12.048   8.274  12.743  0.0109  0.0867 -0.0209
13650W        W17248   0.140   7.591   2.390  0.1581 -0.1973  0.1377
13651W        W17249   5.667   6.744  14.733 -0.1092 -0.1116  0.0072
13652W        W17250  10.809   2.124   0.314 -0.1487 -0.3424  0.2207
13653W        W17251  10.016  15.076  11.624 -0.0088  0.0662  0.2884
13654W        W17252  15.789  10.959   8.948  0.0772 -0.1220 -0.1508
13655W        W17253   3.548  16.116  10.720  0.0947 -0.1618  0.1153
13656W        W17254  12.718   1.120  13.702 -0.1714  0.0073 -0.0040
13657W        W17255  13.349  14.086  10.519  0.0545  0.0260 -0.0429
13658W        W17256   3.877  10.546   5.839 -0.0148  0.2506 -0.1355
13659W        W17257   0.935  13.084   7.613 -0.3364  0.1110  0.1022
13660W        W17258   6.468   2.975   6.385  0.1896  0.3538 -0.1837
13661W        W17259   4.130   5.961   7.293 -0.1211  0.0551 -0.3214
13662W        W17260  14.014   3.573  14.781  0.0051 -0.0308  0.0512
13663W        W17261  15.402  11.118   2.944  0.0495  0.1352 -0.0195
13664W        W17262  11.958   6.818  15.912  0.2147 -0.0174  0.0943
13665W        W17263   4.029  13.858  13.443  0.0453 -0.0317 -0.0788
13666W        W17264   7.299   3.894   8.864  0.1929 -0.2755 -0.1090
13667W        W17265   4.624   9.510   6.736  0.0917  0.0274  0.0507
13668W        W17266   8.767  13.977  15.716  0.1881  0.0827 -0.3719
13669W        W17267  14.197   3.474   9.160  0.1021 -0.0513  0.0045
13670W        W17268  15.465   0.397   0.549  0.0093 -0.0890 -0.3027
13671W        W17269  10.355  16.326   7.368  0.1528 -0.1081  0.4569
13672W        W17270  11.911   2.993   8.301 -0.2470  0.2824  0.0152
13673W        W17271  12.763  13.874   8.311 -0.2311 -0.0364  0.1267
13674W        W17272   6.170   7.235   2.786  0.0301  0.3838 -0.1432
13675W        W17273   3.641   6.935   8.184  0.0594 -0.0280 -0.0430
13676W        W17274  15.726   7.548   6.560 -0.1621  0.1159 -0.0763
13677W        W17275   5.131   3.197  14.819  0.0023  0.1122  0.1630
13678W        W17276   6.527  13.018   7.073  0.1976  0.2501 -0.2822
13679W        W17277   5.292   0.088   2.873  0.2513  0.0060  0.1531
13680W        W17278  13.989   5.519   3.407 -0.0037  0.1671  0.2437
13681W        W17279   3.835  14.259   5.617  0.0192 -0.0841  0.0141
13682W        W17280  12.491   9.446   6.077  0.1970 -0.2241 -0.1669
13683W        W17281   1.545   2.026   2.605 -0.2218  0.0116 -0.1069
13684W        W17282  15.035   4.725   6.515 -0.0951  0.1176  0.0019
13685W        W17283  10.053  15.990   7.665 -0.1106 -0.0386  0.0512
13686W        W17284   3.354  10.639   3.272  0.0088 -0.2101 -0.2813
13687W        W17285   9.923   2.103   1.416  0.0158  0.0591  0.0088
13688W        W17286  12.424  10.447   6.060 -0.0884 -0.0358 -0.2783
13689W        W17287   1.071   1.164  13.647  0.1667  0.1462  0.2393
13690W        W17288  10.644  13.103   7.289 -0.3548 -0.1262 -0.0126
13691W        W17289   8.773   3.729  10.685 -0.2257 -0.1720  0.0375
13692W        W17290   9.332  10.001   1.273  0.4837  0.2943  0.0670
13693W        W17291   7.860  15.989  13.708  0.2931 -0.3666  0.0136
13694W        W17292  11.101   0.992   0.688 -0.0332  0.1159  0.2205
13695W        W17293   7.707   5.000   0.921  0.2612  0.2488 -0.0021
13696W        W17294  13.585   3.094  15.021  0.2161 -0.1702 -0.0802
13697W        W17295   5.465   2.388   1.705 -0.2326  0.0385  0.1641
13698W        W17296   9.893   6.819  15.038  0.1810  0.1393  0.1364
13699W        W17297   1.877  13.875   6.331 -0.2544  0.2045  0.2992
13700W        W17298   5.281   7.076  14.801 -0.1887  0.0922  0.0931
13701W        W17299   5.709   3.182  12.299 -0.3287  0.0351  0.1443
13702W        W17300   7.735   0.622   5.726  0.0366  0.4366 -0.1513
13703W        W17301  13.664   0.057   3.717  0.3985  0.0168  0.1759
13704W        W17302  13.198  15.888   0.283  0.1994  0.0454  0.1369
13705W        W17303  15.356  15.158  13.039 -0.2168  0.0731  0.1450
13706W        W17304   9.919   3.771  10.957  0.0179 -0.3283 -0.0418
13707W        W17305  13.956   3.065  14.597  0.1540  0.1793  0.2828
13708W        W17306  15.264  13.972   0.631 -0.1643  0.0776  0.1544
13709W        W17307  12.087  11.075  12.956 -0.1006 -0.3350 -0.1846
13710W        W17308   4.504   6.648   9.879  0.3820 -0.0661 -0.1022
13711W        W17309   6.216   2.049  10.297 -0.2501  0.2233  0.0097
13712W        W17310   8.074  10.577   1.042 -0.0645  0.3360  0.1080
13713W        W17311   9.470   6.702   8.315  0.0424 -0.0902  0.2589
13714W        W17312   6.309  14.229   9.388 -0.1522  0.1964  0.1989
13715W        W17313  10.914   9.051   1.633  0.0757 -0.1564 -0.0328
13716W        W17314   5.266  11.695   5.659  0.0627  0.0832 -0.4448
13717W        W17315  11.215   6.243   1.797 -0.0433 -0.2081  0.0239
13718W        W17316   1.402   1.165  14.263  0.1569  0.0353  0.1460
13719W        W17317   5.008   6.638   1.719 -0.2784  0.1037  0.0092
13720W        W17318   6.346   8.109   6.626  0.3535 -0.4352  0.2626
13721W        W17319   0.347   1.703  15.755 -0.1633 -0.0230  0.0691
13722W        W17320  13.999   9.584  16.291 -0.2822  0.1565 -0.1248
13723W        W17321   0.636   9.045  10.599 -0.2013 -0.0679 -0.0846
13724W        W17322   8.781   5.004   6.467  0.3117 -0.1523 -0.2600
13725W        W17323  15.040   4.591  14.552  0.0577  0.1102  0.0644
13726W        W17324  11.330   9.431  14.448  0.0753 -0.0035 -0.3921
13727W        W17325  12.908  13.642   5.045  0.1397  0.0841  0.2145
13728W        W17326   8.549  13.127  15.187  0.1200 -0.0616 -0.4314
13729W        W17327  13.664  10.060  10.110 -0.1931  0.1072 -0.0576
13730W        W17328   0.034  10.312   4.468  0.0094 -0.0442 -0.0418
13731W        W17329  12.405  12.550   9.887 -0.0444  0.1236  0.3243
13732W        W17330   8.489  14.755   4.875 -0.1584  0.0820  0.0134
13733W        W17331  14.045  15.535  11.266  0.1490 -0.1961 -0.0725
13734W        W17332   9.728   9.201   2.545  0.2740 -0.2080 -0.2175
13735W        W17333  13.429   7.761  13.460  0.1125 -0.3616  0.1864
13736W        W17334   7.014   0.131  10.270  0.0226 -0.3297  0.5503
13737W        W17335  12.515   7.076  11.170 -0.1091  0.0947 -0.0311
13738W        W17336  16.349   7.711  10.411 -0.0030  0.0817 -0.1299
13739W        W17337   3.919   9.066  13.333 -0.0674  0.0248  0.0058
13740W        W17338   7.487  14.001   4.007 -0.1997 -0.0154 -0.3579
13741W        W17339  15.629   2.537   5.866 -0.0432  0.1716  0.2095
13742W        W17340   1.181   1.383   8.843  0.0181 -0.4002  0.0348
13743W        W17341   1.881  16.371   9.304 -0.1786  0.0025 -0.3419
13744W        W17342  13.365  14.820  11.558 -0.0614 -0.0634  0.3982
13745W        W17343  14.169   2.364   3.893  0.2064 -0.0525 -0.1021
13746W        W17344   8.636  15.643   9.882  0.0773  0.1277 -0.1923
13747W        W17345  15.064  12.162  14.230 -0.1793 -0.3226 -0.0844
13748W        W17346   3.355  11.841  14.130  0.1616  0.1540 -0.2562
13749W        W17347   6.245  10.237   1.297  0.0304  0.2209  0.1807
13750W        W17348   7.736  10.546   2.829  0.0898  0.0155  0.0079
13751W        W17349   3.874  15.784  11.354  0.0795 -0.1850  0.0104
13752W        W17350   2.779   5.295   8.449  0.0593  0.0932  0.1160
13753W        W17351   7.832   7.399  13.144 -0.1879 -0.2212  0.3061
13754W        W17352   5.975  10.493  12.445  0.0436  0.1520  0.0378
13755W        W17353  15.437   9.808   7.736 -0.0135  0.1563  0.2096
13756W        W17354  15.281  12.932   2.529  0.0000 -0.1584  0.1497
13757W        W17355   7.187  15.317  15.096  0.2789 -0.0095  0.1476
13758W        W17356   7.424   2.988   3.004 -0.1814 -0.1351 -0.0310
13759W        W17357  14.364   0.631   0.458  0.2068  0.4216 -0.4117
13760W        W17358   2.589  13.145   7.233  0.0504 -0.3584  0.2530
13761W        W17359  11.425   4.010   7.186  0.0723 -0.0087  0.0063
13762W        W17360  11.046  13.975   6.844  0.0276 -0.1458 -0.2705
13763W        W17361   6.394  10.679   1.758 -0.3445  0.2515  0.1844
13764W        W17362   0.635  10.058   3.039 -0.1089  0.0869 -0.1688
13765W        W17363   3.892  15.561   2.444  0.0384  0.0314  0.0518
13766W        W17364   9.382   0.962  14.382 -0.1931  0.0503  0.0293
13767W        W17365   0.534   6.122  10.411 -0.0108  0.3832  0.2735
13768W        W17366  10.220   1.818   1.007  0.0601  0.0762 -0.2082
13769W        W17367   7.009   4.512  11.148 -0.3706  0.1950  0.1460
13770W        W17368   0.526  10.226   7.754  0.0580 -0.0216 -0.0749
13771W        W17369   3.544   4.323   7.591 -0.0907 -0.0458  0.1104
13772W        W17370  10.450  11.666   2.470 -0.1999 -0.1692  0.0080
13773W        W17371   5.192   3.340  12.888 -0.1683 -0.0016 -0.1504
13774W        W17372   0.269   5.405  10.948 -0.1895 -0.1142 -0.1892
13775W        W17373   2.862   1.834   7.582 -0.0503 -0.0808 -0.0924
13776W        W17374  12.400   6.283   9.709 -0.2123  0.2046 -0.1460
13777W        W17375  10.241  14.921   9.824 -0.0594  0.5265 -0.2629
13778W        W17376  11.128   1.937  12.695 -0.0533  0.0560 -0.0508
13779W        W17377   0.483   4.920   6.316 -0.0081 -0.0889 -0.0868
13780W        W17378  15.787  12.690  14.177 -0.3376  0.4901  0.0572
13781W        W17379  15.642   8.314   8.258 -0.0495  0.0287  0.0183
13782W        W17380   5.342   9.626   4.851 -0.1777  0.2437 -0.2304
13783W        W17381   3.392  12.396  10.280  0.2316 -0.1336 -0.0029
13784W        W17382   1.753  11.663   8.968  0.2941  0.0219 -0.2199
13785W        W17383  12.256   8.613   9.579 -0.1845 -0.3060 -0.0712
13786W        W17384  14.014   6.096  13.838  0.0381  0.0441  0.1365
13787W        W17385   8.552   4.499   8.960 -0.3079  0.0487  0.1532
13788W        W17386   2.591   0.432   7.863  0.1849 -0.0260  0.0487
13789W        W17387   4.458  14.332   9.423 -0.1102 -0.0239  0.0540
13790W        W17388  12.878  12.004   4.391  0.1291 -0.1434 -0.1585
13791W        W17389   6.473  11.769  12.894  0.0832  0.1758 -0.1687
13792W        W17390  12.029   3.253  11.666 -0.1105 -0.2758  0.1026
13793W        W17391   8.806  11.117   0.753  0.2768  0.2276  0.0471
13794W        W17392   5.054   6.305  13.053  0.1840  0.3294  0.0657
13795W        W17393   5.775  16.155   7.985 -0.0587  0.1059 -0.0355
13796W        W17394  11.393  14.979   6.063 -0.0122 -0.0388  0.0217
13797W        W17395   2.659  12.599  16.014 -0.0357 -0.0784 -0.0512
13798W        W17396  11.469  12.786   7.608 -0.1900 -0.1508  0.2714
13799W        W17397   0.577   4.792   7.153 -0.0316  0.0785 -0.2381
13800W        W17398  12.902   7.461   8.953  0.2137  0.2847 -0.0919
13801W        W17399   3.352   5.054   4.556  0.0328 -0.0010  0.0379
13802W        W17400   8.282  14.329   0.689 -0.1748  0.2232 -0.1038
13803W        W17401  16.075   2.070   8.240 -0.2327 -0.0389  0.1940
13804W        W17402   2.731  11.808   8.888 -0.0920  0.0131  0.2743
13805W        W17403   6.370   0.395   8.683 -0.0031  0.0223  0.0660
13806W        W17404  12.463  16.318   9.208  0.0045  0.0839  0.0449
13807W        W17405   5.763  14.028   7.159 -0.0549  0.1102 -0.2147
13808W        W17406   3.550   1.594   2.465  0.2949  0.3398 -0.3649
13809W        W17407  16.341  14.995  12.962  0.1455  0.1481 -0.2428
13810W        W17408   8.171  11.593   3.335  0.0401 -0.2095 -0.1727
13811W        W17409   4.166   2.038   1.899  0.0398  0.3756 -0.2404
13812W        W17410  14.480   1.582  11.180  0.1266  0.2684  0.0342
13813W        W17411  10.784   9.764   6.835  0.0574  0.4335 -0.1431
13814W        W17412  14.857   8.473   2.393  0.0689  0.1889  0.1115
13815W        W17413   1.643  16.278  15.314 -0.0692 -0.1497  0.3485
13816W        W17414  11.840   8.275   0.542 -0.0879 -0.0207 -0.2199
13817W        W17415   0.994  11.652  12.854  0.1746  0.3020  0.0358
13818W        W17416   4.011  11.618   8.324  0.1274  0.0288 -0.0163
13819W        W17417   9.350   0.419  13.575 -0.2504  0.0745 -0.0243
13820W        W17418  14.800  15.500  10.334 -0.1191  0.0650 -0.0588
13821W        W17419   2.009   6.802  13.762 -0.0436 -0.1748 -0.1912
13822W        W17420   8.501   7.153   0.188  0.1512  0.1187  0.0163
13823W        W17421   0.833   0.656  10.373 -0.1041 -0.3015 -0.1772
13824W        W17422   3.050  10.546  14.574  0.1749  0.1566  0.0492
13825W        W17423  13.916  12.851  11.431 -0.3240  0.1715 -0.2706
13826W        W17424  13.078  12.694   1.207 -0.0627 -0.0625  0.0424
13827W        W17425  13.747   4.164   8.004  0.1855  0.0135 -0.2299
13828W        W17426   5.346  10.272   7.699  0.3759  0.0085 -0.1421
13829W        W17427   5.479  13.557  13.751  0.1151  0.0379  0.0223
13830W        W17428  11.743  11.269   0.664 -0.1357  0.0903 -0.1203
13831W        W17429  14.425   6.937   7.924  0.0897 -0.3041  0.3781
13832W        W17430   9.529   6.019   0.930 -0.0708 -0.2662 -0.2320
13833W        W17431   9.362   4.296   9.921 -0.1307 -0.3063  0.1848
13834W        W17432  11.105   6.625   9.756  0.0592  0.1904 -0.0433
13835W        W17433   1.092  13.196   1.851  0.0268 -0.0404  0.0489
13836W        W17434   1.695   9.071   6.025 -0.2066  0.1705 -0.0950
13837W        W17435   8.907  10.166   8.889 -0.2048 -0.1073 -0.2037
13838W        W17436   5.409   1.444   9.851  0.1681  0.0231  0.1448
13839W        W17437  10.440  10.854   6.019  0.0229  0.2177 -0.1783
13840W        W17438  12.273   6.152   6.242 -0.2207  0.0474 -0.4371
13841W        W17439   6.412   7.502   2.070 -0.0480 -0.1826 -0.1356
13842W        W17440   1.872  11.537  10.215  0.1013  0.0357 -0.0557
13843W        W17441   8.549  10.191  10.396  0.3690 -0.0898  0.1959
13844W        W17442  14.764   6.281   5.069 -0.0579  0.0883  0.2101
13845W        W17443   4.647  12.687  11.918  0.0865 -0.1881 -0.1395
13846W        W17444   4.322   9.094   9.036 -0.0526 -0.0685  0.0659
13847W        W17445   3.630  14.023   6.489  0.1840  0.1648  0.2225
13848W        W17446  11.993  15.563   9.239  0.1595  0.1161  0.0594
13849W        W17447   0.080  15.510  14.548 -0.1186  0.0372 -0.1655
13850W        W17448  15.983   5.260   9.607 -0.4192 -0.3133 -0.2657
13851W        W17449  12.271   4.583   7.285 -0.0048  0.1278 -0.0112
13852W        W17450  15.488   3.362   0.341 -0.1376 -0.2535  0.1015
13853W        W17451   6.404   8.410  11.541  0.2174 -0.2924 -0.0626
13854W        W17452   8.612  10.847   4.248 -0.0654 -0.0441 -0.1476
13855W        W17453   5.139   0.220  12.469 -0.3993  0.2588  0.0896
13856W        W17454  10.614   5.540   4.273 -0.3063  0.0316 -0.2721
13857W        W17455   7.084   1.433   4.792 -0.1115 -0.2495 -0.0780
13858W        W17456   6.109  15.382  14.758 -0.2196 -0.1321  0.0032
13859W        W17457  13.970   6.254  15.995 -0.1335  0.0176  0.1236
13860W        W17458   3.569   0.982   8.217  0.2159  0.0069 -0.0488
13861W        W17459   0.326  11.291   9.129  0.2449  0.1739  0.0699
13862W        W17460  10.865   4.092  16.363  0.1601 -0.3249  0.1610
13863W        W17461   5.593  15.742  15.432  0.0506  0.3874  0.0045
13864W        W17462  16.129   4.054   3.113  0.2222  0.2194  0.2923
13865W        W17463   9.336   0.443   0.746 -0.1061 -0.0252  0.3126
13866W        W17464   7.396   3.951   0.814 -0.1576  0.0742  0.0654
13867W        W17465  15.509   8.026   7.265 -0.1020  0.1330 -0.1970
13868W        W17466  14.185  14.542  12.070  0.0194 -0.1082 -0.0535
13869W        W17467  10.651  13.407   2.218 -0.1728  0.1115  0.0685
13870W        W17468   6.617  10.923   4.852 -0.0920  0.2551 -0.1627
13871W        W17469  10.126   5.178  15.688  0.0013 -0.1123  0.0814
13872W        W17470  12.445  12.208   2.094  0.3816  0.0619  0.0859
13873W        W17471   9.917   8.582  14.331  0.0053 -0.3990 -0.3251
13874W        W17472   9.846  15.530   2.832  0.0618 -0.0476 -0.4551
13875W        W17473  14.013   1.391  13.423  0.1388 -0.0270 -0.2587
13876W        W17474   6.433   9.794   6.131 -0.1561 -0.1058  0.2326
13877W        W17475   0.451   7.742   0.238 -0.1004 -0.1617  0.0276
13878W        W17476  13.087   5.860   6.438  0.0015  0.2018 -0.1541
13879W        W17477  14.125  16.118  11.924 -0.2531  0.2412  0.1602
13880W        W17478   2.956   2.115   2.778  0.0155 -0.1296  0.0796
13881W        W17479   6.138   6.359  11.011 -0.1970 -0.2926  0.1325
13882W        W17480  14.743  10.823   9.577 -0.0552  0.0979  0.0880
13883W        W17481   1.410   3.180   5.251  0.0526 -0.0130  0.2937
13884W        W17482   0.472   6.506   7.305  0.4086  0.1551  0.1829
13885W        W17483   6.088   0.390   0.865  0.0603 -0.4493  0.2742
13886W        W17484   2.642  14.784  12.333  0.0065  0.0144  0.1121
13887W        W17485   5.744   7.284   1.887 -0.0381  0.3510  0.1291
13888W        W17486   8.179   6.456   6.938  0.0486 -0.2530  0.1484
13889W        W17487  14.590   5.944   8.031  0.1388  0.2621 -0.1350
13890W        W17488  12.006  16.322   2.075  0.0388 -0.2534 -0.0190
13891W        W17489   2.274  13.663   1.324  0.1504 -0.3840  0.3082
13892W        W17490   6.719   0.107   8.999  0.1880 -0.2876 -0.1369
13893W        W17491  15.837   6.868  15.482  0.1760 -0.2049  0.0403
13894W        W17492   7.743  14.554  10.998 -0.0667 -0.0276  0.3048
13895W        W17493   8.694  10.648   9.151 -0.4019 -0.2052 -0.2932
13896W        W17494  15.831   4.966  14.305 -0.4920  0.0935 -0.0284
13897W        W17495   8.577  12.037  12.833 -0.1639  0.0466  0.0593
13898W        W17496  11.706   2.931  13.865  0.1605  0.0234 -0.0120
13899W        W17497   9.231  15.621   0.643 -0.1361 -0.0652 -0.0852
13900W        W17498  12.314   0.925  15.795 -0.3782 -0.1674 -0.1942
13901W        W17499   8.265  11.265   4.173  0.1030 -0.3197 -0.1343
13902W        W17500   5.316  15.020   1.024  0.0620 -0.0652  0.3769
13903W        W17501  13.764   9.679   1.285 -0.1555  0.1491 -0.2473
13904W        W17502   0.904   3.916   3.362  0.2200  0.0002  0.5205
13905W        W17503   5.263  15.672  10.334  0.0776 -0.1087 -0.3483
13906W        W17504  11.890  14.605  10.177  0.0885  0.2329 -0.3463
13907W        W17505  12.367   9.332  13.605 -0.0295  0.0819  0.3459
13908W        W17506   4.795  13.578   7.357  0.0075  0.0787  0.0698
13909W        W17507   3.470  13.955  11.418  0.1974 -0.2635  0.1841
13910W        W17508   8.791   9.038   7.185 -0.2063 -0.0231 -0.1474
13911W        W17509  12.485   7.223   0.167 -0.1879 -0.1688 -0.0139
13912W        W17510   6.524  15.066   0.695 -0.1497  0.2738 -0.1401
13913W        W17511   5.003   2.825  10.324  0.2532 -0.2227  0.2609
13914W        W17512   2.721   2.823  16.073 -0.1037 -0.0582 -0.1728
13915W        W17513   1.647   6.860   0.314  0.0328 -0.0484 -0.1817
13916W        W17514   2.397   0.459   3.342  0.3342 -0.0673 -0.0934
13917W        W17515   7.742  10.143  15.212 -0.0068  0.1333 -0.2018
13918W        W17516   1.099  15.204  11.873 -0.1142  0.1455 -0.1600
13919W        W17517  13.447  11.421   4.914 -0.0567  0.1669  0.1856
13920W        W17518  12.838   0.209  13.358 -0.0088 -0.0192 -0.4041
13921W        W17519   7.944   6.837  10.117  0.2042  0.0730 -0.0551
13922W        W17520  14.390   0.317  10.651 -0.1914 -0.1338 -0.2841
13923W        W17521   1.806   8.984  13.640 -0.1058  0.0661  0.0741
13924W        W17522  13.004  15.805  13.691 -0.0195  0.1405 -0.2745
13925W        W17523  11.311   7.308   2.596  0.2036 -0.1228  0.0327
13926W        W17524   6.859  15.399  10.129  0.0214  0.2096 -0.5327
13927W        W17525   9.708  15.750  12.693  0.1086 -0.0277  0.0677
13928W        W17526  12.425   5.933   7.466  0.1845  0.0189  0.3283
13929W        W17527  14.012  10.749   6.685 -0.1463 -0.1684  0.2318
13930W        W17528   4.674   7.058  10.104  0.0086  0.0021 -0.1506
13931W        W17529   3.036  12.101   5.368  0.0062  0.0460  0.0346
13932W        W17530  15.840  15.553  12.505  0.0734 -0.0129  0.0961
13933W        W17531   3.404   9.277  13.453  0.2410 -0.1975 -0.2651
13934W        W17532  15.281  12.263  14.860 -0.0071  0.0050  0.1016
13935W        W17533   3.796  14.437  13.030  0.1906 -0.0104 -0.0406
13936W        W17534   5.690   2.085   4.783 -0.2083  0.1198 -0.0452
13937W        W17535  13.817   9.057  12.953  0.1369 -0.3043  0.2821
13938W        W17536   8.992  10.433   1.269 -0.0026 -0.0113  0.3211
13939W        W17537  11.693  12.426  15.193 -0.2418 -0.0973 -0.0386
13940W        W17538  11.583  10.683   3.920 -0.0746 -0.1782  0.1761
13941W        W17539  10.916   4.848  13.024  0.0779  0.0822 -0.1492
13942W        W17540  13.351   1.077   3.430 -0.1374  0.0525  0.2249
13943W        W17541  12.632  14.611  10.525  0.1453  0.1270 -0.0140
13944W        W17542   8.663  16.104  14.592 -0.1390 -0.2407  0.1748
13945W        W17543  11.791  15.561   4.199 -0.0791  0.1570 -0.0314
13946W        W17544   7.860   9.465  14.105  0.0835 -0.1055 -0.0598
13947W        W17545  12.629  16.048  13.341 -0.6750  0.0343 -0.1106
13948W        W17546   4.340   1.950  10.249  0.0476 -0.0298 -0.0315
13949W        W17547   9.095  13.533   5.936 -0.2422 -0.1250  0.0935
13950W        W17548   3.845   2.148   5.430  0.2434 -0.0908  0.0594
13951W        W17549   1.777   6.571   1.637 -0.3169 -0.1804 -0.0440
13952W        W17550   8.902   0.085  12.302  0.3043 -0.0293  0.0309
13953W        W17551  12.069  14.228   1.860  0.1326 -0.1105 -0.0850
13954W        W17552  16.129   0.968   6.764  0.1840 -0.4331  0.1635
13955W        W17553   0.370   6.962   3.012 -0.0058 -0.2658 -0.0889
13956W        W17554   9.865  13.616   0.962 -0.0084 -0.1591 -0.0807
13957W        W17555  13.444  11.142   5.302 -0.0659  0.0935 -0.0490
13958W        W17556   0.064   3.166   5.295  0.0850  0.2467  0.2402
13959W        W17557  13.169   5.608  15.050  0.0936 -0.1306  0.1118
13960W        W17558   6.367   0.593  11.885  0.0569 -0.2032 -0.0018
13961W        W17559  16.300   6.993   6.172  0.2955 -0.0326  0.0131
13962W        W17560   7.723   9.507   4.086  0.1450 -0.1661 -0.2391
13963W        W17561   9.516   7.490  13.383 -0.2294 -0.4767  0.1183
13964W        W17562   9.807  12.622   6.650  0.2875  0.0019  0.3021
13965W        W17563  12.462   5.542  14.478  0.0784  0.0298 -0.1530
13966W        W17564   8.185  13.191   0.231  0.1527  0.3194  0.3544
13967W        W17565  15.291   3.995   0.700 -0.0256 -0.1383 -0.0777
13968W        W17566  15.908  11.403   8.102  0.0471  0.0556  0.0047
13969W        W17567  10.049   5.790  11.307  0.5161 -0.1290  0.0465
13970W        W17568  11.138  15.147   7.461  0.1017  0.0191 -0.1355
13971W        W17569   3.246  13.719   5.173  0.2648 -0.1831 -0.1068
13972W        W17570  11.455  10.494  11.482  0.3041  0.1007  0.0198
13973W        W17571   8.564   7.709   8.526 -0.0960 -0.1356  0.1060
13974W        W17572   4.106   1.848  10.923  0.2302  0.2660  0.0950
13975W        W17573   4.216   5.318  10.673 -0.0428 -0.0268 -0.1563
13976W        W17574  12.370   0.797   7.800  0.0763  0.2144  0.1976
13977W        W17575  14.837  16.033  11.142 -0.0565 -0.1734 -0.1045
13978W        W17576   6.741   9.728   3.260 -0.1084  0.1846  0.1880
13979W        W17577  15.913   9.146  12.797  0.1411  0.1849 -0.0185
13980W        W17578  11.340   4.096   3.425  0.1054 -0.2475 -0.0993
13981W        W17579  13.373  13.808   8.916 -0.0693  0.1059  0.0001
13982W        W17580  13.576   8.704   7.498 -0.3990  0.2399  0.0097
13983W        W17581   7.499  16.100   2.126  0.1799  0.2295 -0.0993
13984W        W17582   2.772   6.814  13.441 -0.1445  0.0466 -0.4092
13985W        W17583   9.025  15.356   8.031  0.1926 -0.1360  0.2796
13986W        W17584  11.169  10.319  10.691  0.1518 -0.0895  0.2248
13987W        W17585   8.653   9.997   6.558 -0.1016  0.0611  0.3102
13988W        W17586   0.676   2.980   8.850  0.1290 -0.1171 -0.2841
13989W        W17587   7.518  14.126   1.191  0.1148  0.1604  0.0541
13990W        W17588   0.389  11.817   7.862 -0.1562 -0.0639  0.3552
13991W        W17589  13.330  15.519   7.239  0.1853 -0.0087  0.1043
13992W        W17590   2.077  11.975  14.605 -0.2609  0.1649 -0.1586
13993W        W17591   9.668   1.148   1.316 -0.4255 -0.0883 -0.0217
13994W        W17592   7.130   1.367   7.041  0.0317  0.0598  0.0900
13995W        W17593  15.921   2.634   7.337 -0.3760 -0.0738 -0.0977
13996W        W17594   7.508  14.026  16.094  0.3960 -0.1169 -0.0665
13997W        W17595  13.120   5.643  15.655 -0.0738  0.0257  0.4070
13998W        W17596   6.607  13.037  11.112 -0.0781  0.1316 -0.0268
13999W        W17597  10.134   0.524   9.341  0.0731  0.1838 -0.1445
14000W        W17598   1.361   3.403  10.711  0.2652  0.1398  0.2638
14001W        W17599  15.863   4.331  10.646  0.1835 -0.0807  0.2395
14002W        W17600  10.578   2.120   6.230 -0.1024 -0.1353 -0.0563
14003W        W17601   1.951   4.791  12.948 -0.0163  0.3532 -0.2395
14004W        W17602   9.311   9.571   9.376 -0.1002 -0.0900  0.1092
14005W        W17603  13.986   7.592   9.300 -0.1121  0.0834  0.1183
14006W        W17604  11.461   9.024  13.642  0.0895  0.2828  0.2088
14007W        W17605   1.056   9.339  16.336 -0.4366 -0.1248  0.0781
14008W        W17606  14.369   5.275   5.877  0.1738  0.1195 -0.3461
14009W        W17607   1.794  14.101  15.494  0.0713  0.2059 -0.2524
14010W        W17608  14.922   4.688   1.452  0.0049  0.0948  0.1037
14011W        W17609  14.219   5.359   7.475  0.1508 -0.1168 -0.0927
14012W        W17610   7.500   4.817   7.182  0.1995  0.2189 -0.0737
14013W        W17611  14.802   0.536   6.878 -0.2533  0.0678 -0.1969
14014W        W17612  15.625  12.924   8.593 -0.1537  0.1845 -0.2301
14015W        W17613  15.546   1.697  15.040  0.1969  0.1561 -0.1536
14016W        W17614   7.820   4.490  14.111 -0.2970 -0.0024  0.1094
14017W        W17615   9.313  13.385   6.804  0.2886 -0.1032  0.0292
14018W        W17616  10.513  16.276   7.876  0.0788 -0.0240 -0.0356
14019W        W17617   0.439   6.219  12.212  0.4446 -0.1641 -0.0628
14020W        W17618   9.901   3.043  13.576 -0.4164 -0.3325 -0.1104
14021W        W17619  10.971   8.504  14.019 -0.0227 -0.0579  0.0510
14022W        W17620  11.050   7.036  10.298 -0.1300  0.1408  0.0555
14023W        W17621   0.831   0.572  13.033  0.1041  0.0947  0.0064
14024W        W17622  14.519   7.158   8.937 -0.1719  0.1345  0.1906
14025W        W17623   1.920   4.586   1.203  0.0109 -0.0197  0.2346
14026W        W17624   9.158   4.338  15.938  0.1063  0.1594  0.1908
14027W        W17625  13.227   4.547   0.068  0.0731 -0.0514  0.1879
14028W        W17626   6.056  11.102   7.625 -0.2392  0.2021  0.0705
14029W        W17627   9.160  14.620  14.959 -0.1292 -0.0346 -0.0496
14030W        W17628  16.138   5.332  13.543 -0.0798 -0.1354 -0.2056
14031W        W17629  11.843   1.349  10.629 -0.2427  0.1985 -0.0328
14032W        W17630  12.900   4.116  12.604 -0.0709  0.0843  0.1007
14033W        W17631   9.412  15.078  14.981 -0.0984  0.3507  0.2201
14034W        W17632  12.555   9.208   2.434  0.1681 -0.1775  0.1886
14035W        W17633   6.062   4.843   2.550 -0.1103 -0.1045  0.2021
14036W        W17634   7.110  10.919   6.099  0.3164  0.1023 -0.1410
14037W        W17635   8.335   6.789   5.324  0.4358 -0.3007  0.1443
14038W        W17636   1.590   1.628   3.836  0.1607  0.2429  0.1762
14039W        W17637  13.445   7.451   7.542  0.0010  0.2023  0.0495
14040W        W17638   1.596  13.200   1.750 -0.0935  0.4017  0.1613
14041W        W17639  15.929  15.041   7.401 -0.1335  0.2788  0.1858
14042W        W17640  16.275   4.805  13.373  0.1859 -0.1492  0.1817
14043W        W17641   5.300   5.589   2.379  0.0461  0.0376  0.0568
14044W        W17642   5.148   8.366  11.058  0.1342  0.2558 -0.2717
14045W        W17643  13.608  10.409   9.670  0.0511 -0.2652 -0.2333
14046W        W17644  16.172  16.053  13.309  0.0032 -0.0663 -0.2157
14047W        W17645   2.864   7.389  16.213  0.0468 -0.2657  0.1842
14048W        W17646   5.542  13.724   8.595  0.1350 -0.1809  0.1279
14049W        W17647  10.313   9.330   3.235  0.0086 -0.2923  0.2102
14050W        W17648   0.823   5.371  12.284 -0.1062 -0.2304 -0.0348
14051W        W17649   3.454   3.692  15.591  0.0122 -0.2472  0.1333
14052W        W17650  15.916  11.565   3.559 -0.0713 -0.2229  0.4226
14053W        W17651   4.398  15.630  14.249 -0.1203  0.1116  0.3381
14054W        W17652   1.566  14.188   8.009  0.0584  0.0685 -0.0767
14055W        W17653   8.935  15.332   5.959 -0.3169  0.1211 -0.1618
14056W        W17654   9.820  15.931   9.949  0.1798 -0.2724  0.2843
14057W        W17655  11.803  15.826  14.148 -0.1051  0.3900  0.0304
14058W        W17656  14.595   3.959  13.686  0.3617  0.1658 -0.0119
14059W        W17657   8.752   2.287  14.678  0.2335  0.0480  0.1283
14060W        W17658   3.244  12.440   3.267 -0.2572  0.0518 -0.1171
14061W        W17659   3.864  14.814   5.895  0.0925 -0.0289  0.0289
14062W        W17660  11.201  11.512   3.163  0.0442 -0.3651 -0.1049
14063W        W17661   0.947  11.061   4.626 -0.0171  0.3052  0.2719
14064W        W17662   8.864   9.945   1.290  0.3615 -0.2104  0.1967
14065W        W17663   2.427  13.507   6.888 -0.0074  0.0709 -0.1612
14066W        W17664  14.067  15.330  13.311  0.0773 -0.2795 -0.0614
14067W        W17665   2.115  14.108   4.953  0.2999 -0.2974 -0.1710
14068W        W17666  15.988  10.600   4.498 -0.2801 -0.4323  0.2617
14069W        W17667  15.234  14.330   7.494  0.3464  0.0881  0.2359
14070W        W17668   4.118   9.989   2.968 -0.1731  0.1028  0.1717
14071W        W17669   4.567  10.835   2.750 -0.1625 -0.0323  0.1333
14072W        W17670   0.381   4.822  12.546  0.1219 -0.0471  0.0819
14073W        W17671  13.856  12.077  15.810  0.3712  0.2025  0.0290
14074W        W17672  11.336   5.793   1.039  0.1552  0.1247  0.0858
14075W        W17673  13.662   4.608   0.451  0.0841  0.0754 -0.0670
14076W        W17674  10.012  14.845   4.916  0.2277  0.0099 -0.0810
14077W        W17675   7.629  11.402  11.305  0.0999 -0.1318 -0.1914
14078W        W17676   3.449   5.260  14.824  0.1646 -0.3400 -0.1425
14079W        W17677  14.515  12.876  14.942 -0.1359 -0.0547  0.4421
14080W        W17678   8.482  13.985  12.147 -0.0119  0.2085 -0.3156
14081W        W17679  12.904   5.582  12.760 -0.1638 -0.1263 -0.0620
14082W        W17680   7.036  11.457   1.196 -0.3485  0.3390  0.0414
14083W        W17681   7.776   3.837  15.674  0.4879  0.0764 -0.0775
14084W        W17682   2.468   0.267  15.286 -0.1764 -0.2490  0.0028
14085W        W17683  15.449   2.651   9.144 -0.0915 -0.1221  0.2581
14086W        W17684   8.955   9.449   5.911  0.0084 -0.1477  0.1382
14087W        W17685   2.218   1.358   4.367  0.1422  0.1987 -0.1393
14088W        W17686  14.667   6.392  11.244  0.2686  0.3620 -0.0637
14089W        W17687   2.795   5.556  16.310  0.1018  0.0713 -0.0822
14090W        W17688  16.043   4.156  14.918 -0.2068  0.2794 -0.2976
14091W        W17689  16.150   7.832   1.395  0.2326 -0.0946  0.0632
14092W        W17690   7.054   1.322   0.715 -0.1456  0.0556  0.1768
14093W        W17691   9.632  14.205   0.380 -0.2238 -0.0296  0.1003
14094W        W17692   1.566  10.928  13.965 -0.2976 -0.2190 -0.0477
14095W        W17693   8.980   8.046  13.903  0.1510 -0.0554 -0.0545
14096W        W17694   4.027  14.606   8.985  0.1318 -0.1348  0.0185
14097W        W17695  11.425   6.437  10.836 -0.0118  0.0581 -0.1190
14098W        W17696  13.612   9.169  13.431  0.5121  0.1901  0.0305
14099W        W17697   3.420  11.955   1.297 -0.2047 -0.0581 -0.1005
14100W        W17698   3.070  15.911   0.844  0.2213  0.1465 -0.2803
14101W        W17699   4.306   6.320   1.455 -0.0588  0.0202  0.2406
14102W        W17700   4.956   0.495   1.642 -0.0080  0.1640 -0.0344
14103W        W17701   5.050   3.927   6.432  0.2042 -0.0724 -0.2791
14104W        W17702   1.497   6.030   5.779  0.0458 -0.1791 -0.4033
14105W        W17703   3.566   3.199   9.288 -0.0629  0.1032  0.1348
14106W        W17704   8.286  16.335   5.953  0.2605  0.0099 -0.0646
14107W        W17705   9.796   2.217   7.223 -0.3908  0.0043  0.1155
14108W        W17706  11.062   8.341   8.845  0.2451  0.1439 -0.3075
14109W        W17707   2.595   3.416   2.523 -0.2763  0.1750  0.2783
14110W        W17708  11.929   7.741  10.319 -0.0798  0.1873 -0.1661
14111W        W17709   8.050   2.637   4.506  0.2601 -0.2082 -0.0907
14112W        W17710  14.481   9.250  11.951  0.1226 -0.0651  0.2229
14113W        W17711  12.700   8.314   7.586  0.2850 -0.3796  0.1718
14114W        W17712   9.166   1.785   8.273  0.3560  0.0504 -0.1065
14115W        W17713   0.136   9.909  10.976 -0.0629  0.3543  0.0910
14116W        W17714  11.283  16.141  15.378  0.0676  0.2524 -0.1385
14117W        W17715   5.999   8.749   2.037 -0.2038  0.0897  0.0351
14118W        W17716   6.578  15.879   6.136 -0.0219  0.2977  0.2066
14119W        W17717  12.573   9.624   7.040 -0.3472 -0.0517 -0.2787
14120W        W17718  12.213  10.186  11.673 -0.1161 -0.0180  0.1618
14121W        W17719  15.742  16.381   8.614 -0.1684 -0.4221 -0.0904
14122W        W17720  11.749  14.161   4.699 -0.3983  0.2262  0.1469
14123W        W17721  12.365   5.458   6.237 -0.2844 -0.1165  0.1065
14124W        W17722  11.085   2.755  16.107  0.1154  0.0602  0.0204
14125W        W17723   0.272   1.428  12.231 -0.2942 -0.0550  0.1162
14126W        W17724  11.886   2.458  12.335  0.0677 -0.0948 -0.3735
14127W        W17725  13.741  10.767   4.223 -0.0946  0.2129 -0.2831
14128W        W17726  14.773   9.484   0.301 -0.2798 -0.0841  0.2397
14129W        W17727   0.708   4.503   6.490 -0.0661 -0.1730 -0.2317
14130W        W17728  15.144  10.550  14.275  0.1483 -0.0131  0.0614
14131W        W17729   3.007  15.750   8.235  0.0421  0.0136 -0.2025
14132W        W17730  15.368   3.209  14.289  0.2383  0.3487 -0.1358
14133W        W17731  13.199   8.072  14.370  0.0696 -0.0143  0.3731
14134W        W17732  11.759  15.064  10.220 -0.2666  0.0713  0.1095
14135W        W17733   6.822   4.265   6.015  0.1383  0.1209 -0.1592
14136W        W17734   7.973  14.069   0.966  0.0091 -0.0455 -0.3524
14137W        W17735   3.431   1.125   3.957 -0.1869  0.1442 -0.3481
14138W        W17736   1.532  14.098  12.978 -0.5757  0.2568 -0.1882
14139W        W17737   9.075  13.914  14.952 -0.0667 -0.0341  0.1177
14140W        W17738  13.373   2.255   7.550  0.0445 -0.1284 -0.0198
14141W        W17739  12.367   1.791   9.364 -0.2070 -0.4008  0.1408
14142W        W17740  13.086  12.733   6.918 -0.0502 -0.2102 -0.2104
14143W        W17741  14.695   9.147   6.109  0.0153 -0.2931 -0.2647
14144W        W17742   6.392   1.792   2.280 -0.0193 -0.2391  0.0404
14145W        W17743  12.431   8.155  13.560  0.2662  0.3386 -0.0341
14146W        W17744   2.229   8.143   9.858 -0.1489  0.0123  0.2139
14147W        W17745   1.644  14.597   3.401 -0.0046 -0.0632  0.2064
14148W        W17746  11.629  14.826  12.492  0.1428  0.0689  0.0639
14149W        W17747  16.041  14.301   9.521  0.0245 -0.0724 -0.2166
14150W        W17748  15.905   9.616  15.682 -0.1846  0.1126  0.3134
14151W        W17749   4.908   3.371  15.324  0.1741 -0.1244  0.4443
14152W        W17750  13.171   9.163  15.193 -0.0073  0.3161  0.1377
14153W        W17751   3.290   8.512  15.030  0.2899 -0.1485  0.1667
14154W        W17752   3.683   4.131  14.396 -0.2453 -0.1775 -0.0752
14155W        W17753   5.977   5.825   4.449 -0.3772  0.0042  0.1341
14156W        W17754   4.963  15.721  13.375  0.1831 -0.0221 -0.1897
14157W        W17755   5.804   5.110  11.716 -0.1038 -0.1088  0.1183
14158W        W17756  15.610  15.418   3.284  0.2105 -0.3390  0.2519
14159W        W17757  11.503  11.828  12.771 -0.0617  0.1123 -0.0798
14160W        W17758  14.701  15.253   5.600 -0.1217 -0.0543 -0.0818
14161W        W17759   5.019   6.035  14.108  0.3438 -0.1183  0.1714
14162W        W17760   8.686   6.313  13.018  0.0402  0.1580  0.0839
14163W        W17761   4.906  10.251  14.068 -0.0261  0.1564  0.1543
14164W        W17762  15.360   1.732   8.884 -0.0627  0.0221  0.1016
14165W        W17763  12.823  16.141  15.115  0.3250 -0.0210 -0.1612
14166W        W17764   7.936   6.398   3.378  0.0310 -0.0237 -0.1767
14167W        W17765   3.180   5.719  12.674  0.3436 -0.1275  0.0082
14168W        W17766   6.822   3.992   9.907  0.0286  0.1830 -0.0185
14169W        W17767   3.141   1.502   4.730 -0.3401  0.1663 -0.1756
14170W        W17768  12.635   8.814  14.293 -0.2910  0.1906  0.0416
14171W        W17769  12.070   7.032   6.080  0.2880  0.1604 -0.0749
14172W        W17770   8.595   5.060  10.761  0.0871 -0.0547  0.1175
14173W        W17771   7.646  12.079  14.429 -0.1979 -0.0242 -0.0829
14174W        W17772   6.409   2.097   8.654  0.1185  0.0220 -0.0901
14175W        W17773   4.977   9.588   5.258 -0.3276 -0.0827  0.3482
14176W        W17774   1.048   3.430   8.048 -0.1822 -0.0236  0.2360
14177W        W17775   4.262   4.367   6.695  0.1599 -0.1586 -0.0694
14178W        W17776   1.756   9.333   7.475  0.0427  0.0951  0.0552
14179W        W17777  16.382  12.558   5.844  0.3291  0.0208 -0.2119
14180W        W17778   5.747   3.828  14.364 -0.1845  0.1392 -0.0059
14181W        W17779   6.655  14.897  13.124 -0.0178 -0.0402 -0.0414
14182W        W17780  15.164   0.630  12.483 -0.4934  0.1830  0.1047
14183W        W17781   9.270  15.119   7.512  0.2351 -0.0336 -0.3156
14184W        W17782  15.200   6.765  11.484 -0.2610  0.0762  0.0494
14185W        W17783   1.210   6.361  15.536 -0.0093  0.0427  0.3679
14186W        W17784   8.096   8.228   7.569 -0.0257 -0.2966  0.0910
14187W        W17785   9.949  15.778  15.000 -0.1609  0.1948  0.0213
14188W        W17786  11.922   0.126  14.779  0.0444 -0.1670  0.0579
14189W        W17787   8.910   6.973   2.743  0.2210 -0.0784  0.3012
14190W        W17788   4.038   0.207   7.380  0.0026 -0.1970 -0.4190
14191W        W17789   6.480   2.712  14.657  0.1408 -0.2401  0.0047
14192W        W17790   0.665  10.354   2.198  0.0139 -0.2237  0.1956
14193W        W17791  12.331   1.363   9.611 -0.4126 -0.0478  0.0136
14194W        W17792   2.866   9.569   7.967 -0.1778 -0.2215 -0.0011
14195W        W17793  15.535   6.628   0.557  0.1768 -0.0636 -0.1268
14196W        W17794   2.452   0.391   2.788 -0.1935 -0.0565 -0.1842
14197W        W17795   8.974   9.312   7.977  0.0286 -0.0681  0.0831
14198W        W17796   7.923   0.895   7.171  0.2203 -0.0814  0.0029
14199W        W17797   5.835  15.237  11.031 -0.1502 -0.0767  0.3024
14200W        W17798   9.671   0.184   8.083 -0.0863  0.1908  0.1939
14201W        W17799   4.816  14.217  12.378 -0.0309  0.1214 -0.4823
14202W        W17800  10.296   8.226   9.874  0.3912 -0.0040  0.0487
14203W        W17801   5.255  10.373  16.194 -0.1460 -0.2895 -0.2222
14204W        W17802   9.305   9.583   5.641 -0.1203  0.0533 -0.0081
14205W        W17803   2.752  11.180   4.979  0.1042 -0.1039  0.0808
14206W        W17804   1.291  10.134   4.895 -0.1857 -0.1369  0.1117
14207W        W17805   2.470  14.137  12.969  0.0821 -0.1575 -0.1229
14208W        W17806   7.935   2.633   1.350  0.0347 -0.2308  0.1971
14209W        W17807   4.461  10.386   6.325 -0.0183 -0.4492 -0.1446
14210W        W17808   9.107   9.037   4.940  0.0715  0.1714 -0.0817
14211W        W17809  13.504   9.925  14.167  0.1036  0.2301 -0.0520
14212W        W17810  16.286  11.571   3.907 -0.0775  0.0346 -0.0985
14213W        W17811   4.679   0.655   6.732 -0.0077 -0.1898 -0.1930
14214W        W17812  11.091   3.536  11.962  0.1198 -0.1538  0.0067
14215W        W17813   1.599   1.948   7.534 -0.2132 -0.3019 -0.1277
14216W        W17814   1.166   3.466   2.671 -0.0625  0.0892 -0.0840
14217W        W17815   9.216   6.503  14.255 -0.0203 -0.1224 -0.2420
14218W        W17816   0.668  14.295   3.300  0.0542 -0.2944  0.1069
14219W        W17817   2.812  15.481  14.790  0.1054  0.0129 -0.1504
14220W        W17818  14.180  12.386   0.227 -0.0761 -0.0013  0.1427
14221W        W17819  11.305  14.350  11.056  0.0425 -0.0660 -0.0608
14222W        W17820   7.801  11.795   1.861  0.0857 -0.0469  0.0236
14223W        W17821   2.918   2.364   9.196  0.0535 -0.0567  0.2398
14224W        W17822   2.220   6.266   7.506  0.0087 -0.0723 -0.5638
14225W        W17823   5.231   4.303   9.497  0.0163 -0.0534  0.0749
14226W        W17824   1.270   1.551  12.323  0.2091 -0.0961  0.1459
14227W        W17825  11.028   9.982   8.748  0.0329 -0.0147 -0.2782
14228W        W17826   8.495   7.364  12.489  0.1122 -0.1491 -0.1289
14229W        W17827  11.102  10.346  14.908  0.1857  0.1358 -0.1290
14230W        W17828  15.740  14.146   5.736  0.0220 -0.2155  0.2049
14231W        W17829   5.825   4.515   8.981  0.0341 -0.1181  0.2284
14232W        W17830   6.250  15.032  13.441  0.0434  0.0264 -0.3611
14233W        W17831   1.358   1.179   2.676  0.1256  0.4148  0.1976
14234W        W17832  12.348  13.598   9.181 -0.1461 -0.1010 -0.0287
14235W        W17833  12.304  15.987   7.951 -0.2625  0.0517 -0.0915
14236W        W17834  13.709  11.199   1.314  0.2829  0.1110 -0.0752
14237W        W17835   2.108   9.647   1.346 -0.0318 -0.0539 -0.1281
14238W        W17836   9.271   4.533  15.418 -0.1045  0.1195 -0.0219
14239W        W17837  13.829  13.967  10.747 -0.1488  0.3370 -0.0288
14240W        W17838  15.839  10.658   9.363 -0.3921 -0.1655  0.1725
14241W        W17839  15.364  10.030   9.946  0.1628  0.1318 -0.2398
14242W        W17840  14.886   1.261   7.062  0.1139 -0.0406  0.0140
14243W        W17841   7.400   6.823  14.545 -0.2176  0.0233 -0.1654
14244W        W17842   2.731   5.833   5.278  0.1743  0.0577  0.2614
14245W        W17843   8.603  11.728   5.619  0.5114  0.0649  0.1131
14246W        W17844   3.439   6.108   4.719  0.1454  0.0387 -0.1257
14247W        W17845  10.958  13.924   6.310 -0.1079 -0.2918 -0.3248
14248W        W17846   5.162   4.055   1.679  0.1972 -0.2075 -0.0912
14249W        W17847  12.563   0.156  15.915  0.3075 -0.3255 -0.3890
14250W        W17848   9.947  12.633   3.126  0.1619  0.1410  0.1220
14251W        W17849   9.315   9.873   8.754 -0.0025 -0.4238 -0.1057
14252W        W17850   6.992  14.614  12.059  0.2534  0.1260 -0.1558
14253W        W17851   1.011   7.000   8.354 -0.4263  0.0645 -0.2149
14254W        W17852   3.659   2.512   4.294  0.3360 -0.0421  0.0736
14255W        W17853   7.089  11.778  12.817 -0.1244  0.2757 -0.2937
14256W        W17854  15.719   3.976   9.311  0.0118  0.2570  0.2017
14257W        W17855   1.344   7.173   5.884  0.0076  0.3159  0.3578
14258W        W17856   6.159  10.323  11.257  0.1083 -0.0678 -0.0967
14259W        W17857  11.570  14.555   6.731  0.2302 -0.0656  0.0708
14260W        W17858   0.515   0.047   5.891 -0.0733 -0.2119 -0.1746
14261W        W17859  15.899   3.416  11.410 -0.3262  0.0730  0.0599
14262W        W17860   0.224   3.850  10.276 -0.0197  0.0908  0.0417
14263W        W17861  10.868  11.234   3.797 -0.0840  0.1847 -0.0837
14264W        W17862   0.360  11.779  16.325  0.0650  0.0906 -0.0360
14265W        W17863   6.250  12.763   0.219  0.4002 -0.1062  0.2844
14266W        W17864   9.498  12.313  13.869  0.2719 -0.0820  0.2002
14267W        W17865   8.053  15.358  12.780 -0.0821 -0.2280  0.1850
14268W        W17866  14.165   2.293   9.367 -0.1707  0.3247  0.4879
14269W        W17867  12.690   4.657   1.346  0.3483  0.2543 -0.0197
14270W        W17868  11.710  13.318   4.932 -0.0951  0.1369  0.0941
14271W        W17869  14.952   2.327  10.610 -0.1120 -0.0820 -0.1367
14272W        W17870   6.029   5.706   6.797 -0.1534  0.0172 -0.0469
14273W        W17871   6.417  11.731   3.625 -0.0273 -0.0951 -0.0374
14274W        W17872  15.578   0.899   5.269 -0.1963 -0.0985  0.1405
14275W        W17873   5.067   5.805   2.761  0.0823 -0.1698  0.3250
14276W        W17874   3.134   9.844  15.019 -0.0906  0.1774 -0.0470
14277W        W17875   3.053  10.559   4.338 -0.1780  0.1401  0.1592
14278W        W17876   6.933   0.943   3.670  0.3167 -0.0743  0.1046
14279W        W17877   9.771   2.711  14.984 -0.1686  0.2188  0.1490
14280W        W17878  10.894   7.434   2.359  0.3150 -0.2220  0.0386
14281W        W17879   6.517   6.146   6.518 -0.0756 -0.0926 -0.3752
14282W        W17880   4.036  14.893  16.024  0.1028 -0.0232  0.0779
14283W        W17881  15.078   5.497   3.446  0.0892 -0.0374  0.1107
14284W        W17882  11.473   8.762   6.484  0.1200  0.0936 -0.0164
14285W        W17883   5.305  13.685  16.137  0.0442  0.1212 -0.3398
14286W        W17884   9.669  12.163   5.804  0.0525 -0.0558  0.5377
14287W        W17885  12.689  16.101   5.628 -0.0683  0.2830 -0.0279
14288W        W17886   8.196   0.923   3.876  0.1811  0.2001  0.2116
14289W        W17887   1.337   9.218   9.641  0.0690  0.0160 -0.0250
14290W        W17888   6.116  10.042   8.455  0.2727  0.0264 -0.1827
14291W        W17889   5.670   0.078   5.217  0.1550 -0.0764 -0.1532
14292W        W17890   8.069   9.972  14.850  0.2932 -0.0379  0.3171
14293W        W17891   6.649   2.289  12.437  0.1815 -0.3183  0.0917
14294W        W17892  10.211   6.805  12.293 -0.0234  0.2021  0.2733
14295W        W17893   6.859   9.634  11.132 -0.1015 -0.2999  0.2473
14296W        W17894   7.233  10.910   4.648 -0.0786 -0.1151  0.1992
14297W        W17895  13.725  11.654   1.816  0.1386 -0.0794 -0.0917
14298W        W17896  11.106   4.352  16.029 -0.1297  0.3459 -0.4144
14299W        W17897   3.344   9.284  11.001 -0.0230  0.1205 -0.2085
14300W        W17898   1.074  15.778   1.037  0.0091  0.0468 -0.0030
14301W        W17899  13.461   4.663  12.247 -0.3651  0.0646  0.1314
14302W        W17900   5.930   7.844  10.921 -0.0927  0.2166 -0.2073
14303W        W17901  14.922  12.755   2.832 -0.1543  0.0069  0.3622
14304W        W17902   8.247  15.737  16.006 -0.0651 -0.2432 -0.4590
14305W        W17903  10.048  11.735   4.098 -0.1958 -0.0509  0.0382
14306W        W17904   1.200   2.090   7.850  0.0649  0.1170  0.3669
14307W        W17905  11.776   0.406   2.131 -0.0370 -0.0640  0.1364
14308W        W17906   0.306  14.412   4.551 -0.1151 -0.1999 -0.0761
14309W        W17907   1.672   6.822  11.080 -0.0871  0.0695  0.0032
14310W        W17908  14.011  11.755   7.015 -0.1355  0.1501  0.0353
14311W        W17909  12.017   6.213  11.057 -0.1215 -0.1835  0.1166
14312W        W17910  11.930   2.607  15.629  0.1555 -0.1460  0.0229
14313W        W17911   6.919   0.269  11.970 -0.3504  0.0952  0.4792
14314W        W17912  12.410   6.568   6.983  0.3982 -0.1693  0.0397
14315W        W17913  11.687  13.657   0.496  0.1434  0.1731 -0.0242
14316W        W17914  12.099   7.034   8.793 -0.1295 -0.1232 -0.1193
14317W        W17915   9.795   9.379   8.359  0.0262  0.0009  0.2939
14318W        W17916   4.144   2.495   7.162  0.1725 -0.0413 -0.0536
14319W        W17917   7.183  15.258  10.746  0.2044  0.2706  0.2183
14320W        W17918   5.729   4.910   4.091 -0.1272 -0.0467 -0.0141
14321W        W17919   7.850  11.998   7.432  0.1386  0.2907  0.0467
14322W        W17920  12.196  14.420  12.085  0.2335  0.1298 -0.0452
14323W        W17921   6.545   6.555  13.202  0.1666  0.0189  0.2367
14324W        W17922  11.207  15.890  10.605  0.1044  0.0566  0.1567
14325W        W17923   0.872   0.530   1.319  0.1465  0.2528  0.0019
14326W        W17924  15.856   8.013   9.322 -0.0099  0.0097 -0.2372
14327W        W17925   1.494   8.110   8.185  0.4318 -0.2072 -0.1202
14328W        W17926  12.142  15.795  13.297 -0.0784 -0.0055  0.0419
14329W        W17927   2.264  11.426   6.962 -0.1158 -0.2000 -0.0418
14330W        W17928   7.615   9.247   8.354 -0.0100  0.2152  0.3021
14331W        W17929  14.004   1.011   9.857  0.0452  0.1302  0.1947
14332W        W17930   6.373   2.101  12.092  0.1429 -0.1203 -0.0361
14333W        W17931   8.504  13.265   2.550 -0.0300 -0.0937 -0.1609
14334W        W17932   6.417   5.324   6.089 -0.4576 -0.0126  0.0148
14335W        W17933   5.591   6.146   4.459 -0.4152  0.2423  0.1880
14336W        W17934   9.826  15.304   4.920  0.1570 -0.0353  0.2485
14337W        W17935   1.567   6.519   6.752 -0.0417  0.4230  0.2104
14338W        W17936   7.433   1.622   5.102  0.2087  0.0298  0.0608
14339W        W17937  14.478   5.498  10.759  0.1000 -0.0481  0.1711
14340W        W17938  16.083  10.497  11.907  0.1990  0.1329  0.0786
14341W        W17939  15.178   7.974  11.903  0.0178  0.0123 -0.2695
14342W        W17940   8.016   1.517  11.107 -0.0909  0.3352 -0.0932
14343W        W17941   1.882   3.230  11.601 -0.0412 -0.2555 -0.0048
14344W        W17942   3.385  13.960   6.923  0.3485  0.0918 -0.2091
14345W        W17943   3.942   0.408  15.091  0.1174  0.0383  0.0213
14346W        W17944   2.646   4.768   0.165  0.1540 -0.0807  0.0803
14347W        W17945  11.631   6.798   8.158 -0.0321 -0.3539  0.1252
14348W        W17946  14.168  15.713   0.749 -0.0112 -0.3288 -0.2220
14349W        W17947  14.851   2.440   4.795 -0.1120  0.0454 -0.3135
14350W        W17948   6.062   2.923  12.504 -0.6604 -0.3014 -0.0389
14351W        W17949  11.273  14.609   0.033 -0.0750  0.2108 -0.0223
14352W        W17950   9.424   9.457   4.024  0.0861 -0.0130 -0.0878
14353W        W17951   8.304   2.732  14.446 -0.2496 -0.1121 -0.1366
14354W        W17952  13.351  10.987   2.852 -0.1174 -0.0468  0.0507
14355W        W17953   8.905   0.178   5.222  0.0913 -0.2025  0.0002
14356W        W17954   4.247   9.650   9.551 -0.0549  0.0799 -0.1821
14357W        W17955  15.236   1.535  13.466  0.1592 -0.1492  0.0352
14358W        W17956   7.045  13.193  14.168  0.0933  0.0213 -0.3046
14359W        W17957   1.231  13.481   1.499 -0.0362 -0.1555 -0.1105
14360W        W17958  15.158   8.064   7.589  0.0480 -0.0058  0.1718
14361W        W17959   7.983   1.217   8.745 -0.0809 -0.0615 -0.1202
14362W        W17960  16.161   0.318   3.020  0.4196  0.0656 -0.0317
14363W        W17961  12.863  11.301  10.506 -0.3450 -0.0544 -0.0401
14364W        W17962   4.598   1.053  16.244 -0.0474  0.2219  0.2998
14365W        W17963   2.501   7.233   7.311  0.1600  0.0580 -0.3002
14366W        W17964   5.704  11.417   5.682 -0.1267 -0.0277 -0.0245
14367W        W17965   2.391   2.749   5.816  0.1444 -0.1581  0.1186
14368W        W17966  11.743  10.596   3.422 -0.1630 -0.1150 -0.1375
14369W        W17967   7.412  13.616   3.598 -0.1570  0.1010 -0.1058
14370W        W17968   0.708   4.664   1.199  0.0345 -0.2678  0.0642
14371W        W17969  12.985  12.377   2.049  0.0515 -0.0399  0.1480
14372W        W17970   5.895   7.240  12.190 -0.0520  0.4007  0.0659
14373W        W17971   3.316  11.476   9.073 -0.0574 -0.2983  0.1284
14374W        W17972   9.083   9.818   4.588 -0.2199  0.2893  0.4946
14375W        W17973   5.101  16.190   0.012  0.0794 -0.0515 -0.1894
14376W        W17974   1.689  13.026   3.830 -0.0848  0.1619 -0.4407
14377W        W17975  11.589   3.549   0.067  0.0851  0.1499 -0.0756
14378W        W17976  13.652   0.768   1.225 -0.0225  0.1745  0.4554
14379W        W17977   3.021  11.579   3.150 -0.1438 -0.2136 -0.2377
14380W        W17978   4.440   8.207  10.407 -0.1064  0.0946  0.0706
14381W        W17979   8.528  13.697  12.917 -0.1104 -0.1460  0.1753
14382W        W17980   9.075   1.825   7.346 -0.2012 -0.0633 -0.1757
14383W        W17981   1.559   9.141   1.245  0.2756  0.0379 -0.1107
14384W        W17982   3.560  10.528   6.215  0.0629  0.1180  0.2175
14385W        W17983   9.288  13.020   9.658  0.0203 -0.0894 -0.0858
14386W        W17984  10.339   2.719  12.802 -0.1665  0.2071 -0.2566
14387W        W17985   9.717  13.054   4.273  0.0325 -0.2998 -0.1688
14388W        W17986   4.277   4.397   0.596 -0.0965 -0.0151 -0.2507
14389W        W17987   9.579   8.973   3.747  0.0474 -0.0586  0.3132
14390W        W17988  10.313   1.936   8.219 -0.0038 -0.1644  0.0914
14391W        W17989  10.262   1.963  12.377  0.1314 -0.2258  0.2331
14392W        W17990   8.929   1.691  13.968  0.0889  0.1561 -0.0768
14393W        W17991  14.590   9.479   7.526  0.3204  0.2123  0.4176
14394W        W17992   8.472   1.781  14.821 -0.2297 -0.2692 -0.0334
14395W        W17993   9.592  13.733  10.478 -0.1638  0.1447 -0.1325
14396W        W17994   7.957   8.615   2.155  0.1996  0.0571 -0.0827
14397W        W17995   1.789   4.494  14.244 -0.2545 -0.0185 -0.0569
14398W        W17996  13.258   6.886   2.027 -0.0785 -0.1699 -0.2115
14399W        W17997   0.478   2.356  13.902 -0.6188 -0.0441  0.3747
14400W        W17998   5.454  10.743   1.314  0.0527 -0.1561  0.2140
14401W        W17999  10.970   6.032   8.460 -0.2216  0.0188  0.1264
14402W        W18000   2.645   0.756  11.285  0.0720  0.0293 -0.0540
14403W        W18001   1.610   9.090   7.016 -0.2015 -0.2178  0.2033
14404W        W18002   5.184  10.621  13.850  0.5884  0.0113  0.1496
14405W        W18003   4.507  14.904   6.897 -0.1986  0.2352  0.1800
14406W        W18004   2.467   3.380   9.618 -0.1745  0.0151  0.2631
14407W        W18005   2.864   0.281   3.573 -0.1184  0.0904 -0.3373
14408W        W18006   9.631   9.301  14.877 -0.1176  0.0027 -0.1153
14409W        W18007   0.232  14.995  15.102 -0.1418  0.1368 -0.2792
14410W        W18008   5.346   2.820   7.295  0.1120 -0.1052  0.2355
14411W        W18009  15.597  15.284   6.202 -0.4167 -0.1160 -0.1447
14412W        W18010  13.636   7.354  10.678 -0.0717 -0.0327 -0.2042
14413W        W18011   6.400   2.508   3.158  0.0093 -0.0182  0.0623
14414W        W18012  13.994   7.422   0.468 -0.0631 -0.2968 -0.0924
14415W        W18013   2.346   9.705  15.683 -0.1195  0.0191  0.0801
14416W        W18014  15.091   5.126  14.781  0.2205 -0.3897 -0.0756
14417W        W18015  14.904   9.698   2.620  0.0629 -0.2944  0.1186
14418W        W18016   3.571  10.638  16.059  0.1468 -0.0238  0.1617
14419W        W18017  10.964   6.423   5.685  0.0270 -0.0241  0.1016
14420W        W18018   5.798  14.760   5.759 -0.0270  0.2245 -0.0093
14421W        W18019  10.476   6.140   0.037  0.1135 -0.0042 -0.1143
14422W        W18020   5.043  13.074   9.933  0.0998  0.4599  0.0869
14423W        W18021   3.852   0.556   8.308 -0.1957  0.0997 -0.0312
14424W        W18022   3.757  15.579  15.032 -0.1167 -0.0938  0.2625
14425W        W18023   7.273   2.598   5.843  0.0796  0.2603  0.3693
14426W        W18024   3.947   4.023  13.905  0.2826  0.2949  0.3034
14427W        W18025  12.312   3.075   8.633  0.1327  0.2133  0.0986
14428W        W18026   9.497   2.655   9.075  0.0517 -0.4537  0.1635
14429W        W18027   2.006   2.694   0.843  0.1743  0.0529  0.0625
14430W        W18028   5.673   6.002   9.923  0.0448  0.0224  0.2896
14431W        W18029  11.465   1.732  11.612 -0.0300 -0.1737  0.4658
14432W        W18030   5.820   1.751  11.661 -0.1682  0.0970  0.0375
14433W        W18031  13.205   9.476  12.538 -0.0544  0.0185 -0.0109
14434W        W18032   0.598   2.029  10.849  0.1728 -0.1459 -0.0639
14435W        W18033   7.177   1.686   4.246  0.1859 -0.3522 -0.0389
14436W        W18034  13.073  10.359  16.001  0.0671  0.3845  0.0568
14437W        W18035   5.376   1.717  16.008 -0.1570  0.1958  0.4520
14438W        W18036   3.054   3.673  11.544 -0.1079  0.1218 -0.1285
14439W        W18037  15.621   9.989   5.607  0.2043  0.1438  0.0455
14440W        W18038  12.477   7.750   2.771  0.0585 -0.1338 -0.0862
14441W        W18039  13.731  14.356  13.161  0.2196 -0.0153 -0.0760
14442W        W18040   0.480   7.596   1.203  0.0778  0.1102 -0.3456
14443W        W18041  15.412  13.782   8.839 -0.3051  0.1463 -0.0433
14444W        W18042   0.550   1.891   1.232 -0.2734 -0.0961  0.2717
14445W        W18043   8.180   6.139   9.513  0.1275 -0.0679 -0.1989
14446W        W18044  11.546   1.693   8.316  0.4282 -0.3751  0.2212
14447W        W18045   3.738   1.937  11.395  0.1129  0.0714  0.2148
14448W        W18046   6.681  12.827   0.619 -0.0971 -0.1387  0.1635
14449W        W18047   3.894  14.418   0.865  0.1259 -0.1913  0.0566
14450W        W18048   4.797   5.830   8.133  0.2234  0.3311  0.0244
14451W        W18049   3.233  11.933   1.835 -0.0801 -0.2122  0.0132
14452W        W18050   9.966  12.072   9.267  0.0638 -0.2967 -0.1520
14453W        W18051   5.906   3.638   4.650 -0.2517  0.2121 -0.3172
14454W        W18052  14.307   2.074  11.030 -0.0420  0.0203  0.2652
14455W        W18053  12.818   8.498  11.812  0.1442  0.1156 -0.2614
14456W        W18054  12.413   2.651  15.701 -0.0508 -0.2154 -0.0551
14457W        W18055   6.373   6.710   6.746 -0.0183  0.4573  0.1651
14458W        W18056   1.260   0.973   7.303 -0.3329  0.1841  0.0947
14459W        W18057  15.907   4.519  10.188  0.2962  0.0545  0.2543
14460W        W18058   7.890   5.224   8.285  0.0108 -0.0039  0.1596
14461W        W18059  16.081  12.935  13.220  0.0662 -0.2846 -0.0307
14462W        W18060   8.002   2.707   2.287  0.3272  0.0809  0.2541
14463W        W18061   7.204   9.626   9.362 -0.1012  0.1799 -0.0173
14464W        W18062   8.744  15.971   2.656 -0.0304  0.1515 -0.1107
14465W        W18063  12.941   9.198   1.000  0.1886  0.2320 -0.3189
14466W        W18064   4.330  13.860   9.994  0.3483 -0.0573  0.0342
14467W        W18065   2.454   6.449  12.359 -0.2725  0.1588 -0.1240
14468W        W18066   6.123   3.319   0.380 -0.2512 -0.0265  0.0726
14469W        W18067   8.938   9.745   3.147 -0.0632  0.2651 -0.0450
14470W        W18068   6.650   8.000   3.302 -0.0479  0.1692 -0.1890
14471W        W18069   5.286   9.428   8.943  0.1251  0.1367 -0.2443
14472W        W18070   4.427   3.308  15.508  0.1425  0.2302  0.2097
14473W        W18071   1.735   1.032   7.568  0.0546 -0.0753  0.0122
14474W        W18072   2.593  15.513   4.171  0.1214 -0.0199  0.0577
14475W        W18073   1.516  14.397  12.601 -0.1350 -0.3545  0.3848
14476W        W18074   0.509  13.654  11.005 -0.1356  0.0662  0.0300
14477W        W18075  13.328   6.922   9.496 -0.0182  0.1300  0.1860
14478W        W18076  11.559   3.157  11.113 -0.0211 -0.3376 -0.2781
14479W        W18077  13.620   0.875   8.364 -0.1524  0.0589 -0.2258
14480W        W18078   9.936   4.029   1.266  0.0477 -0.0552  0.1616
14481W        W18079   0.623   8.145  11.549  0.0225 -0.1358  0.0181
14482W        W18080   7.086   7.982   2.212  0.1048 -0.0866 -0.0097
14483W        W18081   7.763   9.387  13.215 -0.0029 -0.2766 -0.1994
14484W        W18082   8.206   3.176   9.604  0.1038 -0.2341  0.1445
14485W        W18083   0.482   0.534  10.090  0.1661  0.3202  0.0375
14486W        W18084  14.422   2.759   3.703 -0.3192 -0.2270 -0.0449
14487W        W18085   7.603   0.182   7.684 -0.1790  0.0324  0.1987
14488W        W18086   5.312   5.300  12.026 -0.0411 -0.1074  0.1200
14489W        W18087  11.967  10.387  15.130 -0.2032 -0.0417 -0.2391
14490W        W18088   4.306   1.883   4.889  0.0897 -0.1463  0.0807
14491W        W18089   3.577   7.923   8.472  0.0774 -0.1033 -0.2631
14492W        W18090   4.154   1.652   4.088 -0.3150 -0.0743 -0.0744
14493W        W18091  11.434   5.998   3.183  0.1247  0.1731  0.5020
14494W        W18092  16.227   5.978  10.959  0.1617 -0.1521  0.2385
14495W        W18093   0.842   7.434   8.192  0.1631 -0.1047 -0.4072
14496W        W18094   2.372   0.293   8.317 -0.1760  0.0456  0.2944
14497W        W18095  12.558  12.169   9.213  0.1177  0.3080  0.0069
14498W        W18096  11.958  14.237   6.606 -0.0067 -0.3347  0.0297
14499W        W18097  13.316   4.947   6.149  0.0165 -0.0583 -0.0069
14500W        W18098   1.113   1.215   4.689  0.0228  0.0080 -0.1784
14501W        W18099  15.658   6.044   5.367 -0.0809  0.0790 -0.0449
14502W        W18100   5.768  10.399   4.980  0.0827  0.0234  0.0559
14503W        W18101   7.286   3.544  12.008 -0.0609  0.1752  0.1158
14504W        W18102   6.810  14.869  14.605  0.0621  0.1802 -0.3799
14505W        W18103  14.162   2.269  13.456  0.1355  0.3448  0.1168
14506W        W18104  15.185   5.898  10.494  0.0219 -0.2153 -0.2241
14507W        W18105   9.311   7.693   3.378  0.0019 -0.0822  0.3012
14508W        W18106  14.876  13.375  10.561 -0.0970 -0.2666  0.1169
14509W        W18107   0.270  13.951   7.804 -0.0783  0.1187  0.4202
14510W        W18108   7.239  10.606   2.074  0.1516  0.1271 -0.0858
14511W        W18109  10.056   7.464  15.076  0.0473  0.2871 -0.0546
14512W        W18110  15.924  14.292   7.817  0.0390  0.1805 -0.2481
14513W        W18111   2.055  14.209   2.093 -0.1261  0.3342 -0.0445
14514W        W18112  12.089   5.090   3.688 -0.0754  0.1973  0.1972
14515W        W18113  10.288  12.500  12.658  0.1052  0.1882  0.2258
14516W        W18114  15.614   1.908   2.421  0.0960  0.1253 -0.2202
14517W        W18115   0.469   5.404  14.150 -0.2794 -0.0143 -0.0126
14518W        W18116   8.273   2.070   8.016 -0.0195  0.0491 -0.0296
14519W        W18117  13.408  12.103   1.885  0.3825 -0.0714  0.0318
14520W        W18118   5.716  11.879  10.753  0.0590 -0.0249  0.1146
14521W        W18119   9.419  14.896   7.072 -0.2295  0.1871 -0.0324
14522W        W18120   1.975  12.988   8.422  0.0259  0.0138  0.1737
14523W        W18121  11.635   6.693  13.170 -0.1096  0.0285 -0.1315
14524W        W18122   4.561  13.902  14.642  0.1753 -0.0164 -0.1205
14525W        W18123   2.946  12.550   9.358  0.1438 -0.0702 -0.0691
14526W        W18124  11.230   4.977  12.527  0.0681 -0.0265 -0.1539
14527W        W18125   0.593  15.164   6.280  0.2060 -0.1488 -0.0172
14528W        W18126  13.599   0.047  14.031 -0.0580  0.2847  0.1529
14529W        W18127   6.502   3.307  16.318 -0.3969 -0.1892  0.2804
14530W        W18128   3.835  13.129  12.709 -0.1160 -0.0427  0.1935
14531W        W18129   2.487  16.012   3.934  0.2165 -0.1245  0.0316
14532W        W18130   5.592   8.536   6.381  0.0251 -0.1407 -0.0924
14533W        W18131  14.567   5.189   9.932 -0.2354  0.1336  0.2429
14534W        W18132   2.728   1.273   1.687 -0.3327 -0.0235  0.0218
14535W        W18133  12.787  12.379  10.628 -0.0189  0.1154 -0.3350
14536W        W18134   6.220  14.754  10.954  0.2685  0.0977 -0.0934
14537W        W18135   6.835   8.279  10.699  0.1311 -0.2521 -0.1775
14538W        W18136   6.813   9.201   1.950 -0.0104 -0.2041  0.0153
14539W        W18137  12.254  14.130   4.403  0.0378  0.0964 -0.0093
14540W        W18138   0.156   0.868  11.558 -0.1751  0.0572  0.0768
14541W        W18139  14.018   9.870   2.703  0.1190  0.1478 -0.0768
14542W        W18140   7.121  13.593  12.810 -0.0284  0.3557  0.0737
14543W        W18141   0.803   7.030   7.766 -0.1640  0.0544  0.1010
14544W        W18142   1.697  14.470   4.337 -0.0590  0.1773 -0.0913
14545W        W18143  15.500   7.751   0.003  0.1669  0.0958 -0.4012
14546W        W18144  12.960   9.683   9.885  0.1341 -0.2518  0.4536
14547W        W18145   6.754   1.487  16.100 -0.1569  0.1227 -0.1208
14548W        W18146  12.762   6.213   9.345 -0.0872  0.0033 -0.0088
14549W        W18147  14.031   8.531   9.019  0.0068  0.2466 -0.0620
14550W        W18148   6.690  12.955  13.117  0.2460 -0.1452  0.1648
14551W        W18149  11.986   8.233  11.451 -0.1152  0.0653 -0.1870
14552W        W18150   9.857   4.734  11.175 -0.2420  0.0031 -0.3896
14553W        W18151   9.283   8.399   1.453  0.3018  0.0334  0.1427
14554W        W18152   8.188   5.140   4.008  0.1139 -0.0079 -0.0133
14555W        W18153   4.203   0.241   9.803 -0.2176 -0.0363  0.1736
14556W        W18154   8.163  11.205   3.708 -0.1255 -0.1053  0.0897
14557W        W18155   5.864  10.573   7.725  0.1705 -0.1754  0.0322
14558W        W18156  10.840   2.851   9.077  0.1990  0.0161 -0.1364
14559W        W18157   0.619   1.795   0.269 -0.0132  0.2127 -0.0716
14560W        W18158   6.959   3.773  15.502  0.3537  0.1910  0.2775
14561W        W18159   7.099  14.127  11.896  0.5218 -0.2558  0.0507
14562W        W18160   7.507  13.327   4.010 -0.3760  0.1389 -0.1270
14563W        W18161  13.319  10.730   5.624 -0.1205  0.0651 -0.0917
14564W        W18162   3.293  11.771   8.607  0.1142 -0.0117 -0.1986
14565W        W18163   0.317   2.309   2.545 -0.3554 -0.1388 -0.3184
14566W        W18164   8.077   2.773   9.908  0.3259  0.2144  0.1636
14567W        W18165  10.352   5.496   0.822 -0.0397 -0.1321 -0.0104
14568W        W18166   9.854  10.528   3.279  0.1329  0.2564  0.2082
14569W        W18167   9.580  11.913   1.154 -0.0404  0.0530 -0.2022
14570W        W18168  10.108   2.046   0.577  0.3246  0.0600  0.3233
14571W        W18169  15.974  16.087   5.871 -0.4269 -0.0690 -0.0878
14572W        W18170  12.474   5.426   5.738 -0.1819 -0.1655 -0.0726
14573W        W18171   5.274   5.572   9.811  0.4870  0.0909 -0.0002
14574W        W18172  16.272   4.129   5.010 -0.1722 -0.0211 -0.1473
14575W        W18173   9.210   0.946  13.564 -0.3671 -0.0861 -0.0882
14576W        W18174   4.036   6.053   1.136  0.0386 -0.0182 -0.2364
14577W        W18175   1.696  11.455   5.732  0.1308 -0.0764  0.1191
14578W        W18176   5.200   1.102   3.318  0.0787  0.2980 -0.1279
14579W        W18177   0.172   5.342  15.511  0.2902 -0.1955  0.0646
14580W        W18178   0.005  10.335  14.634 -0.3556 -0.0187 -0.2459
14581W        W18179  14.125  13.639  10.938  0.1309 -0.1706  0.1674
14582W        W18180   9.644   5.178   9.768  0.3611  0.1361 -0.0252
14583W        W18181   2.960   8.389   6.499 -0.2539 -0.0948 -0.2739
14584W        W18182   5.795  10.453  16.370  0.0054  0.1858  0.0224
14585W        W18183   0.062  15.882   4.127  0.2070  0.0851 -0.1442
14586W        W18184   6.111  15.298   3.952 -0.1709  0.1441 -0.1182
14587W        W18185   1.970   1.254  12.974  0.0682  0.0858  0.0131
14588W        W18186   9.211   1.659   4.372 -0.3748  0.0581 -0.1573
14589W        W18187  11.013   3.696   6.529 -0.2565  0.0261  0.0920
14590W        W18188   6.313  13.902  13.829 -0.0118 -0.2408 -0.0202
14591W        W18189  13.478  12.337   7.550  0.1881  0.0475  0.0779
14592W        W18190  13.637  11.864   7.931 -0.1730  0.7745  0.3474
14593W        W18191   7.748   3.286   0.136 -0.0278  0.0839  0.0113
14594W        W18192   5.021   7.110   6.635 -0.1277 -0.0781  0.1648
14595W        W18193   4.195   8.386  15.807  0.3865 -0.0892 -0.0722
14596W        W18194   4.673   1.520  12.463 -0.2599  0.2890  0.0627
14597W        W18195  14.452  12.861   3.708 -0.3027 -0.1646 -0.1180
14598W        W18196   1.953  13.586  13.389  0.2206  0.0701  0.0638
14599W        W18197   1.719   6.075   4.205 -0.0584 -0.0772 -0.1362
14600W        W18198   8.305  11.117   0.836 -0.1103 -0.1800  0.4330
14601W        W18199   1.944  12.568  14.417  0.1034 -0.2175 -0.1651
14602W        W18200  10.213   2.620   7.707 -0.1731 -0.4744  0.4304
14603W        W18201   8.612  11.463   6.015 -0.0799 -0.1134 -0.0148
14604W        W18202  15.866  15.210  12.103 -0.0099  0.0460 -0.1542
14605W        W18203   2.575   7.706   7.597 -0.0457  0.1153  0.1922
14606W        W18204   0.076   7.084   2.451 -0.0623  0.1298  0.1666
14607W        W18205   0.215  14.810   9.431 -0.1618 -0.1250  0.3255
14608W        W18206   8.981   4.273   2.725 -0.2083  0.0109 -0.0670
14609W        W18207  10.984   1.170   4.233 -0.2683  0.2574  0.1369
14610W        W18208   3.472   5.854   1.106  0.2562  0.0059 -0.1394
14611W        W18209   3.361   1.790   7.186 -0.0262 -0.0415  0.0593
14612W        W18210   3.859   3.507  15.312  0.1327  0.0500  0.2277
14613W        W18211   2.972   7.942   7.068 -0.2651  0.0273 -0.0142
14614W        W18212   5.423   7.639  13.641 -0.0428 -0.0258  0.2000
14615W        W18213  10.647  12.229   6.597 -0.3318 -0.2294 -0.2269
14616W        W18214  15.392   5.318   8.936  0.1329 -0.2061 -0.0409
14617W        W18215   7.874   0.422  10.085 -0.1741 -0.0846 -0.0965
14618W        W18216   1.247  15.393   3.802  0.1994 -0.4434 -0.4127
14619W        W18217  15.316   2.187   6.122 -0.2019  0.2650 -0.0155
14620W        W18218   8.781   6.345  14.427  0.4501 -0.0080 -0.2103
14621W        W18219  10.755   8.486  14.517 -0.2132 -0.2173 -0.4273
14622W        W18220   8.079   2.338  15.930  0.2770 -0.1213 -0.0534
14623W        W18221   8.053  13.046  11.783  0.0705  0.4277 -0.1171
14624W        W18222   5.589  12.051  15.909 -0.0009  0.3648 -0.2135
14625W        W18223  12.798   5.766   5.535 -0.0281  0.1791 -0.3932
14626W        W18224   1.923   9.600   2.604  0.1286  0.0458 -0.0162
14627W        W18225   5.172   0.911  13.099  0.1744 -0.0509 -0.1594
14628W        W18226   1.410  15.942   4.732 -0.2211  0.2403  0.1443
14629W        W18227  16.122   0.010   9.440  0.0000 -0.0432  0.1041
14630W        W18228   9.739  10.658   8.580  0.1519 -0.3374  0.2211
14631W        W18229   9.676   5.265   2.455 -0.2649  0.1157  0.0215
14632W        W18230  12.202  10.547   5.487 -0.1404 -0.0580  0.1568
14633W        W18231   5.068  14.324   8.437  0.0347 -0.2480  0.0963
14634W        W18232   3.898   8.689  11.320  0.2411 -0.2325 -0.0760
14635W        W18233  14.730  15.319   0.204 -0.2636  0.0402 -0.1060
14636W        W18234   0.127   1.848   5.818  0.3093 -0.1162 -0.4822
14637W        W18235   2.410  15.223  11.915 -0.1052 -0.0864 -0.0734
14638W        W18236  15.468  16.224   7.837  0.1401 -0.2479 -0.2722
14639W        W18237   3.544   8.178  14.386  0.0910  0.0458  0.2114
14640W        W18238   2.242   2.816  16.087  0.0829 -0.0198 -0.2956
14641W        W18239  13.075   4.103   7.600 -0.2373  0.2730 -0.2225
14642W        W18240   4.999   2.095   8.523 -0.1133 -0.1127  0.3856
14643W        W18241   9.487  14.213  15.174 -0.2379 -0.4168 -0.0668
14644W        W18242   6.612   6.069   3.595  0.0022  0.0300 -0.0415
14645W        W18243  12.637   3.937   7.422  0.2086 -0.0076  0.1140
14646W        W18244   9.355  10.405   2.024 -0.0001 -0.0253 -0.0839
14647W        W18245   8.219  15.580  10.130 -0.2146 -0.1096  0.1475
14648W        W18246   7.532  15.008  11.065  0.2760  0.0133  0.1518
14649W        W18247  11.207  14.336   5.306  0.0685  0.2102  0.1947
14650W        W18248  11.259   3.256   4.162  0.1192 -0.1721  0.2388
14651W        W18249  12.487  13.823  14.233 -0.2647  0.1089  0.2260
14652W        W18250   9.456   7.167   3.284  0.1897  0.0516  0.1125
14653W        W18251   7.040  10.663   6.834  0.1621 -0.1439  0.0949
14654W        W18252   6.743   8.127  13.385  0.0695 -0.0719 -0.2149
14655W        W18253  14.943   9.438  14.809 -0.0098 -0.2404  0.1530
14656W        W18254   4.546   7.669   5.365 -0.0224 -0.1835 -0.4912
14657W        W18255   2.832   9.519   7.476  0.0618 -0.0114 -0.0163
14658W        W18256   5.855  16.220  16.058 -0.1125  0.0151  0.1073
14659W        W18257   5.677  13.397  10.635  0.0641  0.0744 -0.1584
14660W        W18258  10.787  13.152   4.679 -0.0422 -0.0179  0.0146
14661W        W18259  12.155   7.886   3.732 -0.0066  0.1414 -0.1541
14662W        W18260   9.891   8.960   7.945 -0.2833  0.0911  0.1263
14663W        W18261   7.053   1.646   6.155  0.0995 -0.0557 -0.0960
14664W        W18262  13.070   3.396  12.240 -0.1675  0.0371  0.1515
14665W        W18263   8.978  12.644   2.093  0.0490  0.0585  0.1584
14666W        W18264   5.729   6.385   6.048 -0.0956 -0.0335 -0.1857
14667W        W18265  11.045   2.949   3.151  0.0998  0.2108 -0.1771
14668W        W18266   9.034   7.007   8.287  0.0248  0.2274 -0.0038
14669W        W18267   0.312   2.243   3.047 -0.2636  0.2569  0.1218
14670W        W18268  10.563   8.142   3.803 -0.1840 -0.1057 -0.0065
14671W        W18269  11.798  13.770   7.387 -0.0424  0.0422 -0.0101
14672W        W18270  14.102   4.225  10.483 -0.2649  0.0613  0.1568
14673W        W18271   3.302   5.119  15.720  0.0834  0.1828 -0.0287
14674W        W18272   1.294   5.155   7.751  0.1128 -0.0355 -0.0664
14675W        W18273   0.418  13.110  11.951 -0.6931 -0.1021 -0.0809
14676W        W18274  15.152  12.589  13.420 -0.2771  0.1932 -0.0760
14677W        W18275   0.596  10.978   5.290  0.2902  0.0774 -0.3233
14678W        W18276   8.777   8.328  14.357 -0.1824  0.0902  0.1516
14679W        W18277   7.648   2.783  10.204  0.1218 -0.2420  0.2014
14680W        W18278  11.557   0.503  13.083 -0.0345  0.2593 -0.1588
14681W        W18279  10.938   5.186   0.844 -0.0977 -0.0488  0.1355
14682W        W18280   7.912   6.735  14.532  0.1180 -0.0207  0.2543
14683W        W18281   3.489  15.490   8.104  0.0777 -0.1068 -0.1530
14684W        W18282   3.021   6.404  14.189  0.1719  0.0841 -0.2481
14685W        W18283   1.161   1.695   4.914 -0.0160 -0.0809 -0.4269
14686W        W18284   2.899   7.714  12.423 -0.0534 -0.2137 -0.0833
14687W        W18285  13.157   1.596   4.808  0.0608  0.0658 -0.1985
14688W        W18286  14.815  14.994   9.782 -0.0877  0.0254  0.1109
14689W        W18287  10.992  16.212   1.374  0.1129 -0.0053 -0.2706
14690W        W18288   8.176  11.972   2.953 -0.3329  0.1356 -0.0819
14691W        W18289   0.825   8.648   4.829  0.0038  0.2081  0.1262
14692W        W18290   5.856   5.856  11.265  0.1030 -0.1628 -0.2053
14693W        W18291   9.033  12.355   0.543  0.0674  0.0450  0.1176
14694W        W18292   0.293  13.909  10.680  0.1920 -0.1042 -0.2217
14695W        W18293  14.051   3.075   7.668  0.1686 -0.0907 -0.0137
14696W        W18294  16.232  14.547   0.512  0.1271  0.0575  0.1799
14697W        W18295  15.837   0.775   0.397  0.0178  0.0409 -0.0227
14698W        W18296  14.570   6.264   2.931  0.2302 -0.0368  0.3930
14699W        W18297   2.823   5.596   6.062  0.3529 -0.2393  0.0232
14700W        W18298  11.065   3.639  13.456 -0.1455 -0.3032  0.1183
14701W        W18299   5.864   7.304   8.874  0.0278 -0.1600  0.1867
14702W        W18300  14.944  12.784   0.326  0.0573  0.2012  0.0709
14703W        W18301  13.029   6.819   4.770 -0.0221 -0.1671  0.1677
14704W        W18302   6.074   4.550  10.987  0.3081 -0.0312  0.0154
14705W        W18303  10.609  10.744   2.314 -0.1004 -0.0305 -0.2326
14706W        W18304   4.778  15.470   0.129 -0.0959 -0.1131 -0.1570
14707W        W18305   8.844   1.795   5.679 -0.0981  0.0322 -0.0092
14708W        W18306   6.947   8.808   3.448 -0.0239 -0.1031 -0.0654
14709W        W18307   2.211   0.691   1.485 -0.0034 -0.0202 -0.2965
14710W        W18308   7.630   1.591  13.010 -0.0721  0.0845  0.3746
14711W        W18309   5.136   2.356   0.964 -0.1466  0.1220  0.2181
14712W        W18310   6.097   4.984   5.058 -0.0698  0.2092 -0.3006
14713W        W18311   7.832   9.914   0.450 -0.2357  0.1417  0.2626
14714W        W18312  15.713   5.206  13.839 -0.0613 -0.0724  0.2229
14715W        W18313   3.519   3.759   0.182 -0.1329 -0.0585 -0.3606
14716W        W18314   3.815  14.793  10.435 -0.2759 -0.2427 -0.4110
14717W        W18315  14.889   8.776  14.279 -0.0069 -0.0119  0.1534
14718W        W18316   3.312   2.185  13.275 -0.1360  0.2017 -0.0620
14719W        W18317  15.335  12.966   6.673  0.1176 -0.3577 -0.1863
14720W        W18318   8.408   1.439   3.973  0.2289  0.0442  0.0165
14721W        W18319   2.526   7.309  10.841 -0.0194 -0.0982 -0.4123
14722W        W18320   7.096  14.326   3.828  0.1638  0.3266 -0.1521
14723W        W18321  14.462   4.420  15.108  0.1307  0.1244 -0.1304
14724W        W18322   1.535   2.380  11.071 -0.1043  0.1813  0.0048
14725W        W18323   1.433   4.962  14.412 -0.1100 -0.0370  0.0138
14726W        W18324   6.977  12.833   7.051  0.1221  0.1314 -0.2079
14727W        W18325   2.441   1.379  14.545 -0.0858  0.0511 -0.2117
14728W        W18326  10.845  11.057  10.958 -0.1259 -0.2117  0.3353
14729W        W18327  10.397   8.643  14.095  0.0452 -0.0373 -0.3462
14730W        W18328   3.068   6.181   8.617  0.0996 -0.1952 -0.1579
14731W        W18329   4.722   5.932  13.025 -0.0618 -0.0769  0.3640
14732W        W18330   1.402  11.918   8.661  0.0029 -0.1516 -0.0668
14733W        W18331   3.841   9.870  12.204 -0.1341 -0.0166  0.0385
14734W        W18332   2.610   3.695  10.488  0.0445  0.0636  0.3296
14735W        W18333   4.504   5.371  13.748 -0.1173  0.1382 -0.1577
14736W        W18334   4.945   3.314   1.134  0.0162  0.0220 -0.0989
14737W        W18335   5.243  14.278   7.242  0.2822  0.0341  0.2394
14738W        W18336   9.303   1.924   0.560 -0.1127  0.0826  0.2901
14739W        W18337  11.531  14.169   9.080 -0.2541  0.2570  0.0558
14740W        W18338  13.248  12.739   3.620  0.1259  0.0353 -0.0182
14741W        W18339   8.147   0.470  13.602 -0.0533 -0.0488  0.1507
14742W        W18340   1.234  15.306  11.370 -0.0639 -0.1359 -0.0869
14743W        W18341   4.614   6.705  13.410  0.0983  0.3234  0.0232
14744W        W18342   0.884   9.134   3.664 -0.0283 -0.3328 -0.1141
14745W        W18343  15.842   0.282   9.147 -0.1563 -0.0306 -0.0060
14746W        W18344  12.347   9.206   1.949 -0.2884 -0.2528 -0.1542
14747W        W18345   7.989   5.244  15.706  0.1017  0.0998  0.2205
14748W        W18346   1.452  12.851  13.591 -0.1158 -0.2262  0.1246
14749W        W18347  10.892   4.911   0.437  0.2165 -0.2210  0.2102
14750W        W18348   4.554   5.499   1.305 -0.2969  0.3017  0.2759
14751W        W18349   2.200  16.228   5.756  0.0389 -0.2444 -0.1246
14752W        W18350   4.371   3.656   6.319 -0.1481  0.0639  0.0046
14753W        W18351  13.773   1.405  15.099 -0.2115 -0.3466 -0.0609
14754W        W18352   9.307   3.822   1.358  0.2019  0.1196 -0.0695
14755W        W18353  12.688   7.629  11.575 -0.0023  0.0625  0.2229
14756W        W18354   6.085   7.005   9.190  0.0757  0.1850 -0.2541
14757W        W18355   9.193   9.201  14.739 -0.1017  0.4321 -0.2486
14758W        W18356   3.577   6.802  13.170  0.0379  0.1570  0.2355
14759W        W18357   7.169   7.427   8.079 -0.0853  0.3731 -0.0303
14760W        W18358  13.778  11.229  12.733  0.0781 -0.0179  0.1744
14761W        W18359   0.907   8.501   1.441 -0.0135  0.3438  0.2746
14762W        W18360   9.448  10.952  11.594  0.1022  0.2436 -0.2676
14763W        W18361   4.454  10.385   7.251  0.0440  0.0713 -0.5959
14764W        W18362  16.365  16.124   5.557  0.0197  0.3655  0.1265
14765W        W18363   2.779   5.630  11.698  0.1821  0.3091 -0.2473
14766W        W18364   7.838   0.392   8.362 -0.0151 -0.1135 -0.1667
14767W        W18365   3.404   6.738  11.743 -0.1490  0.0094  0.3106
14768W        W18366   4.850   4.269   0.776 -0.0864 -0.3287  0.1064
14769W        W18367  12.352  14.082   2.315  0.0137  0.1546  0.0694
14770W        W18368   6.228   4.981   3.897 -0.1003  0.2221 -0.1293
14771W        W18369   3.061   7.620  15.430  0.1901  0.1190 -0.4720
14772W        W18370   7.772   0.085   0.678 -0.2283  0.0211  0.2387
14773W        W18371  11.456   2.483   8.396  0.4047 -0.1491  0.0179
14774W        W18372  15.499   4.388   9.288 -0.1214 -0.2301  0.0176
14775W        W18373   2.654   9.515   9.930  0.1036 -0.0903 -0.1718
14776W        W18374  16.176  14.142   9.014  0.1754 -0.0957 -0.1656
14777W        W18375  16.226   5.631   1.407 -0.0084 -0.3126 -0.1052
14778W        W18376   5.609   4.424  12.066 -0.0049 -0.1842 -0.0284
14779W        W18377  10.893   5.510   6.252  0.0313  0.1330 -0.1265
14780W        W18378   6.703   6.207   1.234  0.1513  0.3582  0.0013
14781W        W18379   8.215   8.679   4.079  0.0561 -0.2576  0.2190
14782W        W18380  12.455   9.628   9.374 -0.0107 -0.2123 -0.3999
14783W        W18381   9.069   2.529  11.446 -0.1489  0.1523 -0.0287
14784W        W18382  14.314   1.150  10.885  0.0248 -0.1746 -0.2126
14785W        W18383   4.445  13.071   6.007  0.0378  0.1043  0.0600
14786W        W18384  10.102   4.302   8.770  0.4111 -0.0202 -0.1099
14787W        W18385   5.408   7.351   5.608  0.2418  0.1311  0.1458
14788W        W18386  14.586   1.265  15.649 -0.4813 -0.1088  0.0536
14789W        W18387  13.902   8.888   2.972 -0.3127 -0.1222  0.3355
14790W        W18388  15.403   2.185   5.041  0.1449 -0.0468 -0.1770
14791W        W18389  15.593  12.824  12.040 -0.1140 -0.2062 -0.0044
14792W        W18390   4.005  10.751   8.171 -0.1781  0.3783 -0.1950
14793W        W18391   3.752   1.861   6.788  0.2444  0.3740  0.1714
14794W        W18392   9.864  13.122   1.081  0.1490  0.0256  0.0868
14795W        W18393  11.140  13.050  10.162  0.1490 -0.1144 -0.0262
14796W        W18394  13.367  11.650  11.901  0.0753 -0.0213 -0.0832
14797W        W18395   5.319   8.112  12.037  0.1032  0.2676 -0.1264
14798W        W18396  11.499  11.273  14.844  0.1713 -0.0728 -0.1600
14799W        W18397   5.478   2.677  16.041 -0.1930  0.0168  0.2138
14800W        W18398  15.395   8.069  15.984  0.1417 -0.2561  0.0614
14801W        W18399   9.371   5.863  12.495 -0.0736  0.0468 -0.0761
14802W        W18400   2.509  14.980   3.377 -0.0885  0.2284  0.0180
14803W        W18401   1.728   1.334  13.905  0.0394 -0.1012 -0.4953
14804W        W18402   5.013   7.409   9.428  0.4181 -0.2925  0.0329
14805W        W18403  15.918   9.527  12.031  0.1717 -0.0762  0.0616
14806W        W18404   7.878   5.703   8.488 -0.1699 -0.2130  0.1018
14807W        W18405   6.180  11.652   1.245 -0.1945  0.1900 -0.0415
14808W        W18406   0.023  14.600  11.403 -0.0473 -0.0393 -0.0476
14809W        W18407   9.133  15.256   6.912 -0.0863 -0.0704  0.0475
14810W        W18408   5.133  10.210  13.602 -0.0520  0.0813  0.1288
14811W        W18409   8.367   2.901  15.819 -0.2443  0.1470  0.4360
14812W        W18410   8.136   5.968  11.887 -0.0348  0.3970  0.0304
14813W        W18411   4.774   9.009  14.894 -0.0727  0.2683 -0.3939
14814W        W18412   4.010  13.890   3.923  0.1893  0.1939  0.0739
14815W        W18413   9.160   5.968   3.727  0.0032  0.1414  0.0318
14816W        W18414  13.455   0.991   2.234 -0.1777 -0.1280  0.0031
14817W        W18415   6.571   9.170   8.738  0.1638  0.2833  0.0423
14818W        W18416   6.243   5.763  14.069 -0.0477 -0.1102 -0.0982
14819W        W18417   2.956   5.667   0.384  0.3227  0.2818  0.1988
14820W        W18418  11.446  15.319   4.450  0.2760  0.1989 -0.2726
14821W        W18419   4.177   6.207   8.120  0.3652  0.0159  0.0524
14822W        W18420  14.159  10.592  14.057  0.4609  0.0276 -0.0252
14823W        W18421   0.996   6.382   6.713  0.2320  0.1549 -0.1111
14824W        W18422  13.736   4.935  15.246 -0.0435 -0.3856  0.0945
14825W        W18423  16.287   0.816   2.887  0.0789  0.2695  0.2181
14826W        W18424  15.905  10.809  10.297 -0.1389  0.1205 -0.0278
14827W        W18425   9.404   7.987   8.227 -0.0049  0.3008 -0.0017
14828W        W18426  15.906   4.937   6.242  0.0878  0.3881  0.4970
14829W        W18427  15.863   4.065  13.796  0.0610  0.3050  0.2367
14830W        W18428  10.885   3.578   9.234  0.1200 -0.0941 -0.0406
14831W        W18429  11.817   4.215   3.286 -0.1404  0.2260  0.2435
14832W        W18430   8.525   9.371   5.134 -0.2200 -0.0371 -0.0884
14833W        W18431  14.189  11.195   3.641 -0.1754  0.1159 -0.2617
14834W        W18432  15.367   6.399  10.425  0.0280 -0.0405 -0.0691
14835W        W18433  11.179  10.880   9.628 -0.0281  0.3639  0.4160
14836W        W18434   7.030   0.768  10.562 -0.1104  0.0184  0.2332
14837W        W18435  15.510  10.249  14.521  0.1225  0.0614 -0.2244
14838W        W18436   8.549   9.377   9.324  0.0194  0.1060 -0.1718
14839W        W18437  14.263  13.885   0.300  0.2685 -0.2798  0.0842
14840W        W18438   5.401  13.145  11.029 -0.0828  0.0291  0.1595
14841W        W18439  12.833  13.025   8.743 -0.0260 -0.0096 -0.2716
14842W        W18440   0.945   1.727  16.351 -0.0585 -0.1764  0.0611
14843W        W18441   9.963   2.864   0.683  0.4378 -0.0687  0.2368
14844W        W18442   0.523  11.113  16.193  0.0144 -0.3211 -0.0461
14845W        W18443  12.852  11.786   1.873 -0.0818 -0.0449  0.1056
14846W        W18444   6.865   7.283   5.108 -0.3313 -0.1303 -0.0521
14847W        W18445  10.363   6.218  14.559  0.0824  0.2079 -0.0366
14848W        W18446  13.883   8.170  10.719  0.2417 -0.4158  0.4887
14849W        W18447   1.921   8.494   7.517 -0.1687  0.1408  0.0355
14850W        W18448   3.439   0.827   5.994  0.1571 -0.4531 -0.2793
14851W        W18449  10.254   4.174   2.953  0.1994  0.2484 -0.0563
14852W        W18450   1.261  11.658  12.341  0.0239 -0.0891 -0.1506
14853W        W18451  15.468  15.927  11.656 -0.3070  0.1764  0.0041
14854W        W18452   9.707   0.594   2.203  0.0954 -0.0196 -0.0107
14855W        W18453   2.569   3.964  15.705  0.0645 -0.0782 -0.0052
14856W        W18454   7.168  14.064   3.377 -0.0535 -0.6722 -0.2484
14857W        W18455   4.330  11.017   6.967 -0.1946  0.3705 -0.2685
14858W        W18456   4.344   6.513   2.660  0.0756  0.0263  0.1005
14859W        W18457   9.408   6.146  13.936 -0.2125 -0.1337 -0.2115
14860W        W18458   9.731  10.394   4.382  0.0058  0.0232  0.0628
14861W        W18459  15.436   5.534  14.782 -0.1775 -0.3678 -0.4856
14862W        W18460   1.277   0.423   8.994 -0.1017 -0.1048 -0.2734
14863W        W18461   5.453   0.122  16.149 -0.1127  0.0912 -0.0838
14864W        W18462  15.862   8.091   9.896 -0.1843 -0.0005 -0.0393
14865W        W18463   6.735  11.163  15.132  0.1698  0.1052  0.0996
14866W        W18464   6.349   4.593  15.361  0.2973  0.3541  0.2052
14867W        W18465  10.055  10.429   4.785 -0.1383  0.0092 -0.2437
14868W        W18466  10.963   1.683   6.860  0.1497 -0.3027  0.0777
14869W        W18467   9.659  11.218   8.786  0.2879 -0.1455  0.0410
14870W        W18468  13.565  15.662  11.221 -0.4537 -0.4345  0.0034
14871W        W18469  10.024   6.015   9.022  0.0146  0.2833  0.2823
14872W        W18470  14.258   5.170   6.389 -0.2693 -0.0133 -0.1080
14873W        W18471  12.275   8.379   3.873  0.1709 -0.1442  0.1381
14874W        W18472  14.298  13.411   2.480  0.3778 -0.0623 -0.2904
14875W        W18473   4.450  12.098   6.470  0.1228  0.0320  0.1575
14876W        W18474  10.334   1.523   7.121 -0.1744  0.3534  0.1624
14877W        W18475  15.502   2.192   1.541 -0.0395 -0.0938  0.0278
14878W        W18476   0.635  12.473   8.398  0.1428  0.1433  0.2410
14879W        W18477   3.655   5.537   6.667 -0.1088  0.2311  0.1199
14880W        W18478  11.298  10.192   4.013 -0.2736 -0.0616 -0.1578
14881W        W18479   3.879  10.352   4.473  0.4071 -0.2186 -0.1430
14882W        W18480   2.894  11.901   0.729  0.0387  0.1680  0.4102
14883W        W18481  13.820   3.308  11.857  0.1708  0.2216 -0.2189
14884W        W18482   8.239  14.855  11.873  0.1201  0.3466  0.0852
14885W        W18483   8.683   7.874   6.535 -0.1142 -0.1181 -0.0962
14886W        W18484   4.297   7.058   9.566 -0.0295  0.1926 -0.1863
14887W        W18485   9.098   6.899   2.275 -0.0612 -0.0420 -0.3167
14888W        W18486  13.743   1.790  11.573 -0.1716  0.0480 -0.2354
14889W        W18487   1.441   1.134   8.320 -0.2891  0.0980  0.3058
14890W        W18488  14.934  15.931  15.127 -0.1455 -0.3038  0.2575
14891W        W18489   3.223  16.072   0.446  0.3974  0.1637  0.3141
14892W        W18490  16.270   8.138  13.982  0.0039 -0.0997  0.2404
14893W        W18491  10.163  15.405   9.840 -0.4286 -0.0666  0.1542
14894W        W18492  11.763   1.750   7.072  0.2068 -0.5568  0.0180
14895W        W18493   3.970   5.608  13.061  0.3920 -0.4210  0.0587
14896W        W18494   3.004  13.116   5.052  0.1077  0.2618  0.2100
14897W        W18495  14.638   2.212  15.459  0.2524 -0.1525  0.2324
14898W        W18496  12.923   6.491  11.066  0.2113  0.1355  0.0507
14899W        W18497   0.620   7.701   9.131  0.1564  0.3851  0.0782
14900W        W18498  12.936   2.564  15.589 -0.0281  0.1575  0.0955
14901W        W18499   5.662   0.027   9.725  0.1350 -0.2490  0.2754
14902W        W18500   5.809   7.995   8.566 -0.0248 -0.2417 -0.2346
14903W        W18501   3.700  13.256   9.567 -0.2181 -0.3933 -0.1373
14904W        W18502  13.393  16.292  15.899  0.1412 -0.2919  0.1083
14905W        W18503  13.488   2.742   7.500  0.2551  0.1718  0.1426
14906W        W18504   3.393   6.260   2.455 -0.1950  0.2116 -0.3291
14907W        W18505  11.555   5.882   5.611  0.0169 -0.0955 -0.2381
14908W        W18506  15.404   7.494  14.820 -0.1853  0.1067 -0.3912
14909W        W18507   2.591   6.767  15.023  0.2902  0.2262  0.0239
14910W        W18508   5.087   1.809  10.661  0.1259  0.1433 -0.0023
14911W        W18509   0.765   7.775   6.257 -0.2382  0.1346  0.3810
14912W        W18510   7.621   6.310  14.541 -0.3120  0.2507 -0.1662
14913W        W18511  14.588   8.645  13.060  0.0452  0.1514  0.1833
14914W        W18512  12.913   6.459   9.999 -0.0007  0.3159 -0.0389
14915W        W18513  14.476  11.528   3.338 -0.2576  0.1146 -0.2066
14916W        W18514   4.928   6.630  11.691 -0.1097  0.0953  0.0541
14917W        W18515   0.316  15.123   5.352  0.0002 -0.2226  0.1297
14918W        W18516  13.901   6.129  11.035  0.1363  0.3009  0.1207
14919W        W18517   9.711  10.877  10.587 -0.4993 -0.1323  0.0834
14920W        W18518   4.791  12.153  15.350 -0.0065 -0.1402 -0.0061
14921W        W18519  14.135   3.223   4.447 -0.1126  0.1446 -0.3959
14922W        W18520  11.259   7.932   3.441 -0.0968  0.2188  0.1271
14923W        W18521   0.132  11.656   8.479  0.0886 -0.0535  0.0703
14924W        W18522   9.715  12.696   1.336 -0.2533  0.0384  0.0653
14925W        W18523  13.876  14.798  13.375 -0.2814 -0.0639 -0.2505
14926W        W18524  10.649  15.579   1.786 -0.0776  0.1323  0.3550
14927W        W18525  12.665   4.956  13.583  0.0640  0.0905 -0.2362
14928W        W18526   1.873   9.965   2.234  0.1933 -0.1007  0.1675
14929W        W18527   9.490   7.508  12.379 -0.1061  0.2002 -0.2051
14930W        W18528   3.526   7.573   2.794 -0.0899 -0.0976  0.1202
14931W        W18529   0.587  13.493  16.333  0.1444 -0.0372 -0.2589
14932W        W18530   1.332  14.315  15.725  0.2671 -0.0680 -0.2003
14933W        W18531  11.979   4.035  15.615 -0.2273  0.2954  0.4223
14934W        W18532   6.857  12.479   2.966 -0.2347 -0.2689  0.0913
14935W        W18533   6.844   7.904  10.015  0.0425  0.1734  0.1489
14936W        W18534   0.818   7.007   0.618 -0.2878 -0.1607 -0.2225
14937W        W18535  14.776   5.341  11.730 -0.0591  0.2261 -0.0126
14938W        W18536   4.788   7.287   2.443  0.1037 -0.1087 -0.1469
14939W        W18537  12.303   1.638   4.035 -0.1615 -0.1662  0.2031
14940W        W18538   3.134  12.144   8.147  0.0716  0.3242  0.0683
14941W        W18539   2.510   1.917  15.694 -0.0681 -0.0215  0.2992
14942W        W18540   6.608  11.700   3.102 -0.1001  0.1299 -0.0207
14943W        W18541  13.473  15.793  13.129  0.0326 -0.2378  0.0356
14944W        W18542  15.244   2.049   9.314  0.1560  0.0650  0.0655
14945W        W18543   3.189  13.071   6.518 -0.3727  0.1487 -0.1430
14946W        W18544   2.109  13.123   6.954  0.2012 -0.1316  0.0854
14947W        W18545  15.454   0.161  14.478 -0.1379  0.1026  0.2503
14948W        W18546   7.032  12.156  11.070  0.2113 -0.1889 -0.0629
14949W        W18547  14.073   3.607   4.082  0.0426 -0.0327  0.1334
14950W        W18548  14.909   5.090   8.185  0.0237 -0.1111  0.1979
14951W        W18549   9.572  13.912  16.257  0.6339 -0.0587 -0.0943
14952W        W18550  12.314  10.656  12.573  0.0347 -0.2806 -0.0714
14953W        W18551  12.013   3.891  12.964 -0.2429 -0.0803  0.2077
14954W        W18552  16.327  12.589   2.289  0.1883  0.1792  0.0802
14955W        W18553  15.353  10.728   8.161  0.4282  0.2194 -0.2024
14956W        W18554   8.595   6.047  11.974  0.1972 -0.0098  0.2739
14957W        W18555  15.972  10.374  12.384  0.1056 -0.2835 -0.0722
14958W        W18556  15.331   6.324  16.048 -0.0313 -0.1084 -0.0223
14959W        W18557  10.015   1.913   9.068  0.2099 -0.2155  0.2197
14960W        W18558   0.361   3.218  15.843  0.1144  0.1014 -0.0489
14961W        W18559  12.947   5.595  10.144 -0.0432 -0.0055  0.0504
14962W        W18560  12.275  15.543   6.379 -0.1017  0.2702 -0.1561
14963W        W18561   9.625   2.371   9.962  0.1956  0.0770 -0.1827
14964W        W18562  15.054  13.121  15.540 -0.0735  0.0764  0.0088
14965W        W18563   1.861   0.734   6.913  0.0541  0.1641  0.0258
14966W        W18564  12.274   9.217   8.467  0.2753 -0.1854  0.2540
14967W        W18565   3.572   7.526   1.275 -0.0116  0.1161 -0.1188
14968W        W18566   4.249   1.244  11.658  0.2394 -0.1802 -0.0038
14969W        W18567   5.325   1.469  13.894  0.4465  0.0641  0.3629
14970W        W18568   3.388  13.888   1.966 -0.1285 -0.2050  0.0293
14971W        W18569   2.263  14.116  14.664  0.0334  0.1146  0.3014
14972W        W18570   5.525  12.993   5.729 -0.2627  0.1422 -0.3835
14973W        W18571   2.151   4.870   4.880 -0.2617 -0.1239  0.1646
14974W        W18572  13.494  12.462  15.996  0.0509 -0.0056  0.1044
14975W        W18573  11.724   7.655  12.547 -0.0591 -0.3573 -0.4676
14976W        W18574   9.751   0.821   0.490 -0.0200  0.1353 -0.1743
14977W        W18575   8.342   3.359   8.749  0.2826  0.0067 -0.0298
14978W        W18576  15.739   3.815   7.912  0.1326  0.0150 -0.1729
14979W        W18577  11.315   8.482   5.684 -0.2266 -0.1152  0.0467
14980W        W18578  13.410   4.185   3.073  0.0511  0.1106  0.0573
14981W        W18579   5.447  11.972  14.751 -0.0166  0.1229  0.2899
14982W        W18580   6.089   9.697   5.481 -0.1197  0.4624  0.0305
14983W        W18581   9.019  15.346  14.890 -0.0334 -0.1893 -0.2551
14984W        W18582  12.828  13.738   6.020 -0.0011 -0.2214 -0.2613
14985W        W18583  15.987  14.217   2.451  0.2046 -0.1674 -0.2199
14986W        W18584   5.801  15.477   6.536 -0.0549 -0.0724 -0.0763
14987W        W18585   5.343  14.133   9.389  0.0734  0.3401 -0.2738
14988W        W18586  10.572   7.957   8.126 -0.0041 -0.0834  0.3578
14989W        W18587   9.205   2.265  11.920 -0.3056 -0.0916 -0.0919
14990W        W18588   4.223   5.127   4.214  0.2360 -0.0971 -0.0110
14991W        W18589   9.199   4.053  15.050  0.2052 -0.1530 -0.0034
14992W        W18590  13.697   3.194  15.989 -0.0362  0.3407 -0.1349
14993W        W18591   8.593   2.809   1.606  0.1345  0.0698  0.0303
14994W        W18592   9.089  14.103   8.040  0.2345  0.2038  0.5124
14995W        W18593  10.095   3.845   4.789 -0.0322 -0.2585 -0.3470
14996W        W18594  15.956   7.395   4.762 -0.1150  0.0054  0.1037
14997W        W18595  14.593   0.674  15.867  0.2716  0.0168 -0.4023
14998W        W18596   9.283   6.720   2.938  0.3137  0.0004  0.1589
14999W        W18597  13.707   2.203  15.775  0.1250 -0.0563  0.1073
15000W        W18598   5.592  13.797   9.073  0.0385 -0.0141  0.3159
15001W        W18599   0.663   8.093   8.874  0.3292 -0.0939 -0.1591
15002W        W18600  14.937   8.406   3.377  0.0953  0.3075 -0.0269
15003W        W18601   2.022   1.185   4.835  0.1319  0.0157  0.1056
15004W        W18602   8.718   0.165   1.763 -0.0145 -0.0576  0.1192
15005W        W18603   0.184   6.116   9.480 -0.0560  0.0755 -0.0398
15006W        W18604  13.459   2.058  13.928 -0.0528 -0.5395 -0.1269
15007W        W18605   6.568  15.601   1.789 -0.0652 -0.3520 -0.0966
15008W        W18606   5.866  15.941   3.323  0.0618 -0.1524 -0.0558
15009W        W18607  10.354  11.735  13.351 -0.1343 -0.0575 -0.2641
15010W        W18608   0.296   4.481  10.374  0.0927  0.0724 -0.2616
15011W        W18609   7.865  16.223  11.754 -0.1653 -0.1455  0.0816
15012W        W18610   6.468   5.909   4.526  0.4996 -0.0253  0.0144
15013W        W18611  12.077   2.881   2.850 -0.0927 -0.0526  0.2068
15014W        W18612  12.739   2.769  13.191  0.1587  0.1364 -0.2675
15015W        W18613   3.384   4.790  15.315 -0.2953  0.0467  0.0050
15016W        W18614   5.777   5.041  10.168  0.1404 -0.1043 -0.1764
15017W        W18615   5.680   2.622   6.982  0.0357  0.0737  0.3666
15018W        W18616   2.505   7.238   8.285  0.0378  0.5010 -0.2592
15019W        W18617   7.610   8.158  10.917 -0.3766  0.1165  0.1475
15020W        W18618   9.042   4.262  14.533  0.1094 -0.1047  0.0138
15021W        W18619   8.868   8.047  15.602 -0.0454 -0.1825  0.1430
15022W        W18620  12.946  15.093   4.861  0.0102 -0.0171 -0.2236
15023W        W18621  12.630  13.999   7.092  0.1246  0.1721 -0.0132
15024W        W18622   2.728   9.765   8.415  0.1885 -0.1481  0.0033
15025W        W18623  12.717   0.780  14.029  0.1587 -0.2653  0.1216
15026W        W18624  12.868  14.696  14.082  0.1598 -0.1198 -0.2312
15027W        W18625   5.726   0.310   1.189  0.2521 -0.2411  0.0974
15028W        W18626   8.437  15.470   1.406 -0.1408  0.0691  0.0966
15029W        W18627   8.946  10.437  14.378 -0.2984 -0.0945 -0.0674
15030W        W18628   0.473   8.492   2.182 -0.1635 -0.1362 -0.0682
15031W        W18629  13.467   5.605  10.063 -0.1739  0.1619  0.1313
15032W        W18630  15.294   3.810   5.398 -0.2096 -0.2217 -0.0610
15033W        W18631   7.585  11.269   8.419 -0.2808 -0.0210  0.0947
15034W        W18632  13.443   0.696   1.637 -0.0979  0.0910 -0.0058
15035W        W18633   6.941   3.520   9.467  0.2036  0.3393  0.0050
15036W        W18634   2.914  12.982  12.539  0.1235  0.0788 -0.3782
15037W        W18635  14.673  11.023   6.123 -0.0796 -0.2301 -0.0895
15038W        W18636   0.550  15.535   5.454 -0.1352  0.0522  0.2840
15039W        W18637   2.230  10.736   5.225 -0.0518 -0.1165 -0.1094
15040W        W18638  14.313   6.315  12.395 -0.0560 -0.0670  0.5213
15041W        W18639   9.252   2.675   7.509  0.1224 -0.1187 -0.1220
15042W        W18640  12.830   1.175   8.643 -0.0090 -0.2215 -0.1392
15043W        W18641  11.464   4.873  15.119 -0.3371  0.0081 -0.0112
15044W        W18642  16.281  16.064  10.576  0.2202  0.0162 -0.1144
15045W        W18643   3.631   3.584   2.986  0.4435  0.0902 -0.1426
15046W        W18644   4.512   2.994   9.297  0.1184 -0.1864 -0.1862
15047W        W18645   4.342   1.166   8.930 -0.1229  0.0903 -0.0452
15048W        W18646  10.724   9.469   5.687  0.0427 -0.0683  0.1704
15049W        W18647   7.844   0.826   2.689  0.0047  0.0381  0.0969
15050W        W18648   2.497   4.778  13.406  0.2289  0.0338  0.0112
15051W        W18649   1.566   2.647   6.620 -0.1827  0.2054 -0.1193
15052W        W18650   9.141  13.058   8.670  0.3609  0.3664 -0.0050
15053W        W18651   7.526   7.866   2.880 -0.0880 -0.3451 -0.0603
15054W        W18652  11.887   3.756   6.659  0.1124 -0.1118  0.1783
15055W        W18653   5.822  12.689   2.184 -0.0504 -0.0156 -0.1246
15056W        W18654  11.340   1.067  10.920 -0.1171 -0.1063  0.3313
15057W        W18655   6.401   2.635   4.663 -0.1838  0.1467 -0.0979
15058W        W18656   5.416   9.213   1.442 -0.0676 -0.2934  0.1054
15059W        W18657   4.080   6.992  14.074 -0.0762 -0.1314  0.1071
15060W        W18658  10.555  15.085   1.713  0.1097  0.0378 -0.3092
15061W        W18659  14.571  13.735   1.553  0.0674  0.1493  0.1170
15062W        W18660   0.701   0.008  14.225  0.1304  0.2418  0.3317
15063W        W18661  12.272   3.985  12.040  0.2017  0.1060 -0.2596
15064W        W18662  14.783  16.166   3.314  0.2118  0.2329  0.2614
15065W        W18663  12.898   3.310   1.713 -0.1151  0.1279 -0.0958
15066W        W18664  10.534   8.733   3.707  0.0240  0.0029  0.2180
15067W        W18665   5.523  15.587   3.210 -0.0670 -0.1170  0.3125
15068W        W18666   8.125  12.238  11.466  0.2418 -0.3414 -0.0437
15069W        W18667  15.287  14.618  11.778 -0.2040  0.2432  0.0287
15070W        W18668   5.267   4.068  13.494 -0.1409 -0.0970  0.2522
15071W        W18669   4.085   1.898  13.629 -0.2184 -0.0700  0.0081
15072W        W18670  16.254   3.430   4.529 -0.2088  0.0949  0.2089
15073W        W18671   6.852   5.604   6.304 -0.1128 -0.1616 -0.2232
15074W        W18672  14.035   1.242  15.540  0.0088  0.1915  0.0932
15075W        W18673  11.715   8.586  12.921 -0.1952 -0.0936  0.0656
15076W        W18674  14.631   7.415   2.263 -0.3011 -0.2274  0.0609
15077W        W18675  15.449   5.373  12.478  0.3334  0.2180  0.1057
15078W        W18676   3.187   0.593  13.653  0.1864 -0.1453  0.0315
15079W        W18677  13.637   5.855  12.332  0.1900  0.3559  0.2274
15080W        W18678   1.889  14.593  11.625 -0.1839 -0.0380  0.0434
15081W        W18679   3.347  10.685  12.234 -0.0415 -0.3644 -0.1686
15082W        W18680   3.447   4.452   5.343  0.2256  0.0637  0.2013
15083W        W18681   7.312  14.321  15.653  0.0229 -0.2773 -0.1083
15084W        W18682   8.097  15.738   9.152 -0.4051 -0.3757 -0.3533
15085W        W18683   1.260  12.309  16.211  0.2242 -0.5465 -0.2751
15086W        W18684   3.280   4.728  14.826 -0.0004  0.1115  0.0858
15087W        W18685   4.043   8.734   8.863  0.0231  0.2086 -0.2597
15088W        W18686   5.032  12.228   1.727 -0.0472 -0.0308  0.0227
15089W        W18687   9.997   1.279  16.186 -0.0316  0.0665  0.1783
15090W        W18688  11.715  15.049  13.443 -0.2045 -0.2186 -0.2269
15091W        W18689  12.580  11.995   8.185  0.1947  0.3313  0.1653
15092W        W18690  12.682   4.812  13.024 -0.0621  0.2291  0.1497
15093W        W18691   7.465  15.372   5.723  0.0130 -0.1190  0.0428
15094W        W18692   3.146  15.088   6.684  0.3404  0.0139 -0.0347
15095W        W18693  14.379   4.529   1.720 -0.2728  0.0510  0.0210
15096W        W18694  13.867  15.901  11.578  0.1203  0.2439 -0.1852
15097W        W18695   9.305  13.050  12.776  0.0123  0.0269  0.1061
15098W        W18696  14.117  14.721   4.141 -0.0717 -0.0547  0.3042
15099W        W18697  14.466   9.852  15.400  0.2285 -0.4459  0.0010
15100W        W18698   4.689   7.751  11.467  0.0920 -0.0874  0.0212
15101W        W18699  15.921   6.620   6.501 -0.2520 -0.3300 -0.0172
15102W        W18700   0.766  12.727   1.822 -0.0428 -0.1692 -0.3353
15103W        W18701   7.812  13.053   8.714  0.2085  0.0662 -0.1164
15104W        W18702   3.391   2.624  13.135  0.2557  0.1023 -0.0276
15105W        W18703  13.778  13.424  15.968 -0.0068 -0.3071  0.0118
15106W        W18704   1.261  14.603   4.560  0.3079  0.2696  0.0936
15107W        W18705   2.062   4.380   6.208  0.0002  0.1126 -0.0462
15108W        W18706   0.694  14.333   7.982  0.1013  0.1767  0.3096
15109W        W18707  12.144   8.116   9.741  0.0429  0.0426 -0.1209
15110W        W18708  15.084   3.481   1.098  0.0913  0.0365  0.1031
15111W        W18709   7.033  15.572   7.799  0.1248  0.1145 -0.0737
15112W        W18710   7.168   3.093   4.083 -0.0593 -0.1265 -0.0078
15113W        W18711   2.130   3.680  12.601 -0.0765  0.0563  0.0391
15114W        W18712   7.194  13.750  16.391 -0.0465  0.3898  0.2488
15115W        W18713   0.080   2.616  13.864  0.0091 -0.1386  0.1414
15116W        W18714   8.128   0.381   8.758  0.1077  0.0627 -0.1055
15117W        W18715   4.663   6.694   6.933  0.0714  0.1309  0.2902
15118W        W18716   9.891   3.474  12.374 -0.0699 -0.5815 -0.0887
15119W        W18717   6.641   1.734   6.387  0.0191  0.1119  0.4115
15120W        W18718   1.199  13.377  12.985 -0.1483  0.0686  0.0357
15121W        W18719   3.763   6.069   5.069 -0.1301  0.1917 -0.3629
15122W        W18720   2.273  15.434  10.060  0.0223  0.0559 -0.0372
15123W        W18721   1.531   7.275   8.388 -0.2469  0.1539 -0.2607
15124W        W18722   2.417   2.689  15.066  0.2069 -0.0006 -0.2178
15125W        W18723   3.015   2.429  15.989 -0.0242 -0.3481 -0.4555
15126W        W18724  15.491   7.167  15.965 -0.0451 -0.0113  0.2624
15127W        W18725   6.749  14.895  10.019  0.1255  0.0665 -0.0677
15128W        W18726   3.367   5.596  13.651  0.0575 -0.1053 -0.0200
15129W        W18727  11.808   9.154  12.330  0.1854 -0.0274  0.0317
15130W        W18728   5.110  10.194   8.122  0.0274 -0.1794  0.1509
15131W        W18729   8.472  11.917  11.515 -0.0015  0.0617  0.0274
15132W        W18730  11.524   7.693   0.710 -0.0666  0.0948  0.1930
15133W        W18731   7.917  13.175   1.322  0.0666 -0.0945  0.1853
15134W        W18732   1.968  11.414   4.041 -0.2180  0.0166 -0.0240
15135W        W18733   2.949   5.247   3.180  0.0101  0.3002 -0.1391
15136W        W18734   6.929  10.406  15.537 -0.1301  0.0074 -0.0155
15137W        W18735  12.936   2.973  11.159  0.1319  0.1652 -0.6471
15138W        W18736  15.196  14.525  12.324 -0.0786  0.1519  0.1842
15139W        W18737   3.241   6.581  12.444 -0.2773 -0.0087 -0.1963
15140W        W18738   3.264   4.169  15.586  0.1170  0.1863 -0.1738
15141W        W18739   3.292   2.935   9.855  0.0640 -0.1167  0.1697
15142W        W18740  14.320  13.583  15.519  0.1760 -0.2251  0.1785
15143W        W18741   2.843   9.236  11.974 -0.2058  0.0417  0.1285
15144W        W18742   3.963   4.733   1.550  0.2698 -0.3175 -0.2482
15145W        W18743  11.080  11.139  12.987 -0.2970  0.4095 -0.2495
15146W        W18744   0.200   7.548   8.889  0.1893  0.0934  0.1816
15147W        W18745  10.818   6.609   4.486 -0.1444  0.0188  0.1763
15148W        W18746  12.104   4.674   3.467 -0.1467  0.3675 -0.0718
15149W        W18747   6.244  10.545  16.277  0.1989  0.0761  0.2093
15150W        W18748  10.351  10.429   3.510 -0.2066  0.3327 -0.0395
15151W        W18749   2.615   8.591   0.141 -0.1309  0.1536 -0.3098
15152W        W18750   8.560  12.799  14.794  0.1461 -0.0809 -0.2024
15153W        W18751  14.852   8.326  12.204 -0.2911 -0.0396  0.0229
15154W        W18752   2.733  12.889   5.717  0.0079 -0.1178 -0.2033
15155W        W18753  10.002  11.301   9.687  0.2059  0.0312 -0.0528
15156W        W18754   8.575  10.607  14.668 -0.1435 -0.0976 -0.3216
15157W        W18755   4.418  12.812  10.546  0.3713 -0.2813 -0.0172
15158W        W18756   3.089   5.153   6.001  0.2133 -0.1379 -0.2021
15159W        W18757   6.805  15.621   4.220 -0.0432 -0.0537  0.4121
15160W        W18758   4.377   8.172   5.289  0.0408  0.1569  0.2033
15161W        W18759  12.450  12.978   2.497 -0.0597 -0.1162 -0.1950
15162W        W18760  13.134  14.652   8.703  0.2075 -0.1420  0.3952
15163W        W18761   6.846  14.067   5.036  0.3186  0.1201  0.2582
15164W        W18762   2.970   4.614  15.647  0.3866  0.0416  0.0984
15165W        W18763   7.139  14.569   2.141  0.2515  0.1913  0.0007
15166W        W18764   5.330  11.951   3.617  0.3369 -0.0517 -0.0250
15167W        W18765  10.758   6.366   1.616  0.1376 -0.0657 -0.1860
15168W        W18766   8.969   0.961  12.114  0.1346 -0.1286 -0.1245
15169W        W18767   6.660   7.039   2.033  0.2775 -0.1056 -0.2713
15170W        W18768   6.270  11.831  12.441  0.3084 -0.1038 -0.0977
15171W        W18769  13.095   1.436   0.721  0.2375  0.1206 -0.0953
15172W        W18770  10.825   9.653   6.272  0.0820 -0.1560 -0.1263
15173W        W18771   0.403  12.426   8.842 -0.0380 -0.0051 -0.1370
15174W        W18772   7.467  13.172   0.600 -0.0133 -0.0158 -0.0173
15175W        W18773   7.774  15.508  10.751 -0.0559  0.1138  0.1624
15176W        W18774  14.881   1.166  13.297  0.1658  0.1779 -0.3208
15177W        W18775   5.367  11.958   2.731  0.1648  0.0795 -0.0665
15178W        W18776   7.888   3.743   0.901  0.0079 -0.1790  0.0530
15179W        W18777  12.401  13.723  14.727  0.0463  0.1862  0.0191
15180W        W18778  12.129  12.625   0.311  0.0394  0.0759 -0.1438
15181W        W18779  11.174   0.400  10.728 -0.0620  0.0158 -0.2017
15182W        W18780   7.783  11.524   8.849 -0.0404 -0.0786  0.4138
15183W        W18781   9.858  12.465   0.261  0.1133 -0.2090 -0.1113
15184W        W18782   8.168   1.977   9.236 -0.1508 -0.0513  0.3302
15185W        W18783   9.498  15.731   3.136 -0.0781 -0.0528  0.0154
15186W        W18784  13.923  10.824   0.918 -0.2759  0.2403 -0.2253
15187W        W18785  10.741  12.901  14.444 -0.0412  0.2815 -0.1760
15188W        W18786  12.710   4.500   4.792  0.3281  0.1175 -0.0015
15189W        W18787   2.449   1.955   7.985 -0.0716  0.0461  0.2789
15190W        W18788   8.447   1.994  16.139  0.0983 -0.2833 -0.0761
15191W        W18789  12.728   1.199  15.970  0.2500 -0.0169 -0.0879
15192W        W18790   8.849   8.823   7.690 -0.0055  0.0364  0.1590
15193W        W18791   3.154  15.601   6.798 -0.0015  0.2827 -0.1033
15194W        W18792  13.467   8.794   6.617 -0.3342  0.1155  0.1863
15195W        W18793   6.691   0.870   0.467  0.0758  0.0413 -0.1942
15196W        W18794   3.900   7.833   4.517 -0.0328  0.0952  0.1709
15197W        W18795   7.655   0.080   6.915  0.0377  0.0599 -0.2217
15198W        W18796   1.767  11.659  12.274 -0.1644  0.0891  0.1817
15199W        W18797   9.459   3.823   5.569  0.0461  0.1011  0.0333
15200W        W18798   7.318   5.781  12.310 -0.1320 -0.2334 -0.0112
15201W        W18799   7.540   4.889  14.024 -0.1198  0.0423  0.0925
15202W        W18800  12.877   2.971   8.774 -0.0532  0.0676 -0.1174
15203W        W18801   6.460  10.727   6.304  0.1269  0.1109  0.0112
15204W        W18802   4.153   7.882  15.008 -0.0774 -0.4035 -0.0302
15205W        W18803   8.520   2.800  10.778 -0.3470  0.0755  0.2820
15206W        W18804   1.993   2.176   2.441  0.0092 -0.0957 -0.0398
15207W        W18805   1.001  11.237  13.415  0.5082  0.0104  0.2939
15208W        W18806   1.891   8.339  15.787 -0.1996  0.0733 -0.2692
15209W        W18807   9.827   3.384   4.670 -0.0982 -0.0363  0.0936
15210W        W18808  14.987   0.035  10.080  0.0750  0.1476 -0.1042
15211W        W18809   4.731   7.575   6.712 -0.0812  0.2673 -0.1424
15212W        W18810  10.431   6.662   2.309 -0.1544  0.0047 -0.0149
15213W        W18811  10.769  10.048   1.122 -0.2077  0.1248 -0.1317
15214W        W18812  11.996  10.360  12.837 -0.2637 -0.1939 -0.1819
15215W        W18813  10.530  12.711  13.200 -0.4468 -0.1749 -0.0867
15216W        W18814  13.615   1.979   8.563 -0.0591 -0.0785  0.1119
15217W        W18815  12.002  10.838  13.850 -0.3462  0.0143 -0.3498
15218W        W18816  12.821  12.736  13.406  0.0733  0.1058 -0.1183
15219W        W18817   3.707  10.466   6.726  0.2085 -0.0097  0.0632
15220W        W18818   1.109   7.888  16.347  0.0120 -0.0701  0.1868
15221W        W18819  13.820  12.239   4.818 -0.1289 -0.2511  0.0553
15222W        W18820   7.136  15.912  15.254  0.2860 -0.3904 -0.0165
15223W        W18821   5.841   3.888   0.397 -0.3553 -0.0542  0.0419
15224W        W18822   7.952   5.008   1.738  0.0221 -0.0127  0.0698
15225W        W18823   7.580  12.972  12.040  0.0529 -0.1778 -0.2276
15226W        W18824   0.103  10.521   5.588  0.1447 -0.2548 -0.2635
15227W        W18825  14.199   8.645   5.304 -0.1506  0.0176 -0.0695
15228W        W18826  13.692  16.057   6.419 -0.0765  0.1142  0.1046
15229W        W18827   1.190   3.785   1.080  0.0103  0.1411 -0.0316
15230W        W18828   2.498  16.347  12.483 -0.1796  0.2481  0.1238
15231W        W18829  14.499   1.824   9.866 -0.2288  0.0476  0.2493
15232W        W18830   2.877   6.404  11.002 -0.0262 -0.2627 -0.4062
15233W        W18831  14.245  12.543  11.747  0.1780  0.2596 -0.0909
15234W        W18832  15.461   3.922   5.899  0.0324 -0.0600  0.0502
15235W        W18833   6.358   4.927   8.430  0.0497 -0.0351  0.0797
15236W        W18834  16.110   0.928  11.456 -0.0265 -0.1286 -0.0184
15237W        W18835  10.601   3.967   1.266  0.0764 -0.0183  0.0165
15238W        W18836  13.189  13.199   3.385 -0.0478 -0.0431  0.0960
15239W        W18837   6.830   7.128  13.913  0.6392 -0.2047  0.0204
15240W        W18838  10.315   3.024  13.214 -0.0615  0.2102 -0.1357
15241W        W18839   8.176   9.263  11.643 -0.2650 -0.0150 -0.0080
15242W        W18840   2.746   8.048  10.181  0.2270 -0.0115 -0.1526
15243W        W18841   3.415   8.431   1.330  0.0661 -0.4715 -0.0545
15244W        W18842  10.326   8.188  12.503 -0.3368 -0.1539  0.0342
15245W        W18843  15.067  11.193   5.646 -0.2581  0.1792  0.2384
15246W        W18844  10.569   0.638  12.176  0.1200 -0.1576  0.0463
15247W        W18845   6.699   7.918  15.150  0.0369 -0.2614  0.1271
15248W        W18846   9.971   9.409   1.692 -0.0905 -0.2682  0.0448
15249W        W18847   0.087   7.046  11.965  0.1647  0.0429  0.0096
15250W        W18848  16.025  12.381   7.314 -0.5182  0.0378  0.1894
15251W        W18849   5.600   4.319   5.753 -0.1160 -0.0223 -0.0935
15252W        W18850  15.186   2.588   5.619  0.2556 -0.1424  0.0944
15253W        W18851   2.935   5.956  11.412  0.1162 -0.3041  0.3493
15254W        W18852  13.919  11.863   0.537  0.0829  0.1030  0.2398
15255W        W18853  13.536  13.921   2.254 -0.0570  0.1087 -0.2148
15256W        W18854  12.590   0.665  13.243 -0.0933 -0.1984 -0.2753
15257W        W18855  11.964   1.546  13.417 -0.4332 -0.1001 -0.3163
15258W        W18856  11.850   4.316  12.635  0.0968 -0.1269  0.3141
15259W        W18857   7.840  15.438   1.131 -0.1703  0.0611 -0.2853
15260W        W18858   2.700   6.612   6.214 -0.1944  0.0943 -0.2471
15261W        W18859   7.041   2.085   2.105  0.0528  0.1645  0.1130
15262W        W18860  13.562  10.551   0.722 -0.1960 -0.1031 -0.2309
15263W        W18861   1.959   1.941   8.169 -0.4176 -0.0495  0.0749
15264W        W18862  11.534  16.214   2.935  0.0821  0.3262  0.0840
15265W        W18863  11.211   4.345  14.690 -0.0033  0.0828  0.1192
15266W        W18864  10.620   4.816   2.409 -0.0425 -0.1032  0.1145
15267W        W18865   7.726   1.076   9.209  0.0806 -0.2003  0.0787
15268W        W18866   9.894   5.742   0.768  0.2523 -0.0787 -0.0900
15269W        W18867   0.627  12.847   8.072 -0.1061 -0.3041  0.1877
15270W        W18868  15.501  14.584   5.605 -0.0891  0.1700 -0.0611
15271W        W18869  13.310   7.278  13.304 -0.0560 -0.0093 -0.1735
15272W        W18870  15.649   8.846  12.523 -0.0708  0.0681 -0.0797
15273W        W18871   9.912   4.546   7.076  0.1528 -0.2384  0.0374
15274W        W18872   2.097  15.585   6.966 -0.0708 -0.3727 -0.0198
15275W        W18873   1.172   8.795   6.833 -0.1970  0.0525 -0.2529
15276W        W18874   7.266   8.635   4.522 -0.1920  0.0902 -0.2888
15277W        W18875   2.567   6.668   4.105 -0.2707 -0.0872  0.1905
15278W        W18876  10.193  10.866   9.875 -0.3355  0.0340 -0.0267
15279W        W18877   4.536   0.609  11.750 -0.3898 -0.3228 -0.1009
15280W        W18878   5.781   8.792   5.897 -0.1160  0.2746  0.1470
15281W        W18879   8.972  11.094   6.244  0.0372 -0.0747  0.1144
15282W        W18880   4.966   7.374  13.746 -0.0069  0.0735  0.1371
15283W        W18881   8.440  15.378   8.224 -0.2103 -0.0053 -0.0988
15284W        W18882  16.313  10.403  15.641  0.0861 -0.1338  0.2322
15285W        W18883   5.943  12.147  12.145  0.0911  0.0142 -0.1591
15286W        W18884   2.822   2.892   4.103 -0.2058 -0.0970 -0.0661
15287W        W18885  12.511   4.288   9.121 -0.0036  0.1390 -0.0781
15288W        W18886   5.747   0.348  10.406  0.0230 -0.1298  0.0850
15289W        W18887  15.380  11.692   8.847  0.1212 -0.1646 -0.1347
15290W        W18888   7.162   1.361   1.598  0.0361  0.0628 -0.2655
15291W        W18889  14.873  12.117  11.875 -0.6434  0.1400  0.0498
15292W        W18890  12.582  14.576   9.934 -0.0121 -0.1223  0.1313
15293W        W18891   6.640   1.791  14.667  0.1165  0.1710 -0.0986
15294W        W18892   4.288   9.983   7.519  0.0668 -0.1132  0.3356
15295W        W18893   2.128   2.676   3.487  0.3088  0.0414  0.2554
15296W        W18894  16.067   8.803   2.877  0.0457  0.1824 -0.0356
15297W        W18895   0.023   6.142   2.065 -0.0342 -0.0361 -0.0438
15298W        W18896   1.032   7.151   9.737 -0.0107 -0.0701 -0.1774
15299W        W18897   4.272   6.805  15.879 -0.0036  0.2215 -0.0784
15300W        W18898   7.965   3.976  10.098  0.2869  0.0339  0.3882
15301W        W18899   9.003  14.778   4.903  0.0757 -0.1787  0.2536
15302W        W18900  11.792   7.195  12.434  0.1925  0.1057  0.0034
15303W        W18901  14.136   7.785   8.225  0.0271  0.0063  0.1890
15304W        W18902   8.955  15.540  12.266  0.0246 -0.1052  0.1370
15305W        W18903   3.052  10.619   9.449 -0.1544 -0.3537  0.1972
15306W        W18904   4.374   4.999   0.260 -0.1662 -0.2044 -0.0915
15307W        W18905   8.218   5.003   1.312 -0.1926  0.2796 -0.0087
15308W        W18906   6.380   9.256  16.012  0.0231 -0.1890  0.1026
15309W        W18907  11.547  12.104  15.956 -0.0898  0.0750  0.0795
15310W        W18908   4.438   9.597   1.547  0.2420  0.2146 -0.1396
15311W        W18909  14.301  16.156   6.490 -0.0921 -0.0302  0.0071
15312W        W18910   6.101  16.335   1.117 -0.2443 -0.1330 -0.3322
15313W        W18911  12.482  11.511  12.201 -0.1404 -0.1069 -0.2138
15314W        W18912  10.120  14.191  14.268  0.3139  0.2034  0.4274
15315W        W18913   8.418  11.665  10.105  0.1155  0.0610  0.0144
15316W        W18914   2.694   8.966   7.540  0.1816 -0.1069 -0.0196
15317W        W18915   7.041   5.133   7.309 -0.3679  0.2596  0.3082
15318W        W18916   9.670  12.194   6.349  0.3772 -0.2744 -0.0866
15319W        W18917   3.275   0.777  16.327  0.0085 -0.2891  0.1975
15320W        W18918   8.441   9.780  12.432 -0.0057  0.1470  0.1537
15321W        W18919   3.956   0.439  13.682  0.0335 -0.0399 -0.1055
15322W        W18920   6.879   9.166  12.445 -0.1735 -0.3664 -0.2241
15323W        W18921   7.741   5.420  14.798 -0.2828 -0.4269  0.1833
15324W        W18922  14.804   3.903   9.753 -0.0664  0.1475  0.2788
15325W        W18923   1.268  16.205  11.485  0.1490 -0.4246 -0.0309
15326W        W18924  16.309  12.397  15.804  0.0861 -0.3624  0.2084
15327W        W18925  15.493   5.518   9.387  0.1299 -0.2107  0.2462
15328W        W18926   5.508  11.242   1.432  0.0644  0.1180  0.0059
15329W        W18927  10.952   3.827  10.836 -0.0452 -0.5671  0.0950
15330W        W18928   1.958  12.566   3.877  0.0408 -0.0078 -0.0908
15331W        W18929   9.783   2.551   1.809 -0.0834 -0.2018 -0.0552
15332W        W18930  10.764  16.039   8.608 -0.0225  0.4107 -0.3667
15333W        W18931   9.324   3.146  12.092  0.0023 -0.1249 -0.2739
15334W        W18932  11.660  16.250   8.862 -0.0550 -0.1064 -0.0325
15335W        W18933   0.831   2.535  15.729 -0.0209  0.0357 -0.0439
15336W        W18934   8.532   7.006   1.579 -0.2157 -0.1277  0.1851
15337W        W18935   7.913  14.876   1.900  0.0124  0.1039 -0.1451
15338W        W18936   0.592   8.627  16.015  0.3011  0.1056  0.1688
15339W        W18937  11.380   4.301  12.296  0.1358 -0.2513  0.3761
15340W        W18938   8.181   4.104   0.029 -0.0367  0.1096  0.3085
15341W        W18939   1.322   7.290  13.303 -0.2650  0.2913  0.0889
15342W        W18940   5.949  12.064   5.015 -0.1513  0.0836  0.3333
15343W        W18941  14.342   2.789   2.421  0.1741  0.3718 -0.2476
15344W        W18942   5.378   4.859   7.604  0.1321  0.1793 -0.1218
15345W        W18943  11.629  11.438   7.371 -0.2576  0.0090 -0.2065
15346W        W18944  13.611   2.305   0.510 -0.4947 -0.1504 -0.2958
15347W        W18945   5.360   0.404   0.236 -0.0504 -0.4146  0.0912
15348W        W18946   3.503   5.543   0.406 -0.3742  0.0559  0.4528
15349W        W18947   2.950   0.818   0.299 -0.2272  0.0622 -0.0940
15350W        W18948  13.788   5.930  12.820 -0.1861  0.1564 -0.0991
15351W        W18949   1.908   5.504  16.032  0.0508 -0.0347  0.0549
15352W        W18950   5.438  11.639   6.465  0.0461  0.0560  0.0429
15353W        W18951   1.878   4.537  14.829 -0.1041 -0.4093  0.4728
15354W        W18952  11.863   6.716   2.111 -0.1945 -0.0430 -0.0348
15355W        W18953   4.127   4.527  10.062  0.0930 -0.2065 -0.0281
15356W        W18954   1.489   1.929   8.293  0.1128 -0.2431 -0.1374
15357W        W18955   2.697  15.902  12.323 -0.2040 -0.2954  0.0870
15358W        W18956  12.275  15.499   9.994  0.1591 -0.0264  0.2359
15359W        W18957  12.823  16.309   1.451  0.0434  0.0397  0.0422
15360W        W18958   4.588   4.354  13.234 -0.2570 -0.1456 -0.1295
15361W        W18959  13.153   7.908  14.867 -0.0040 -0.0390  0.3017
15362W        W18960  16.105  14.718  12.206 -0.0394  0.1531  0.3951
15363W        W18961   7.367   3.762  15.942 -0.1986 -0.0803 -0.0995
15364W        W18962   3.463  15.804   7.547  0.0786 -0.2023 -0.1362
15365W        W18963  13.561  14.993  13.058  0.1082  0.0201  0.0196
15366W        W18964  10.146   2.721   8.568  0.4942 -0.0302  0.2868
15367W        W18965   8.158   0.040   6.889  0.0856 -0.0172 -0.0691
15368W        W18966   8.517  14.936   9.648  0.4745 -0.1682  0.0340
15369W        W18967   0.879  16.354   1.588 -0.0892 -0.3908 -0.2362
15370W        W18968   8.468  13.213   7.097 -0.3048 -0.2304 -0.1824
15371W        W18969   3.013   5.210  10.294 -0.4169 -0.3511  0.0355
15372W        W18970  15.830  13.837  12.816  0.0494 -0.0209 -0.2133
15373W        W18971   1.128  12.857  15.422  0.2133  0.0856  0.2536
15374W        W18972  12.847   8.715   1.673 -0.0546 -0.0212 -0.2828
15375W        W18973   6.730  11.648  14.966  0.0246 -0.2165 -0.1805
15376W        W18974  15.278   8.601   4.713  0.1475 -0.1756 -0.0607
15377W        W18975  11.017  10.928   8.597 -0.1691 -0.1219 -0.2018
15378W        W18976   9.059   5.409   6.161 -0.0243  0.2462  0.0239
15379W        W18977  13.905   8.972   6.551  0.0171 -0.1030  0.3506
15380W        W18978   8.518  14.615   9.256  0.0485 -0.2150 -0.1500
15381W        W18979   6.531   1.042  16.280 -0.0105 -0.3389  0.1885
15382W        W18980  11.594   4.284  15.827 -0.2144 -0.1117  0.2745
15383W        W18981  10.844   3.594   5.151 -0.4818 -0.0269  0.1927
15384W        W18982   8.841   7.343   6.626 -0.1346  0.1217  0.0831
15385W        W18983  14.380   2.033   0.551  0.0467  0.1516 -0.2579
15386W        W18984   2.188   4.702  10.290  0.1806 -0.3273  0.0741
15387W        W18985  12.964   2.782   6.550 -0.2604  0.1582 -0.0964
15388W        W18986   2.917  11.418  11.482 -0.0758 -0.2256  0.0795
15389W        W18987   8.469  13.018  14.256  0.0845  0.0202 -0.2125
15390W        W18988  11.965   4.655   9.877 -0.2340  0.0332  0.0718
15391W        W18989   0.025  15.577   5.343  0.0089 -0.1904 -0.2411
15392W        W18990   8.267   9.566   6.505  0.0431 -0.1308 -0.0642
15393W        W18991   5.952   4.332   0.608 -0.0347  0.0914 -0.1558
15394W        W18992   3.409   0.340   8.114  0.3686 -0.0518 -0.1376
15395W        W18993  16.216   6.938   8.718  0.4097 -0.0182 -0.0204
15396W        W18994   1.370   2.891  10.928  0.0441 -0.3617 -0.1226
15397W        W18995  11.194   8.681   0.733  0.0297  0.0701 -0.0893
15398W        W18996   5.323  13.233  14.551 -0.0059 -0.0485  0.0137
15399W        W18997   4.241   3.114  13.573 -0.0733  0.0868 -0.1181
15400W        W18998   5.132  16.040   4.708  0.0832  0.0502 -0.0529
15401W        W18999   5.811   5.652   8.659 -0.0864 -0.0821  0.2014
15402W        W19000  10.354   6.206  11.462  0.2503 -0.2685 -0.2325
15403W        W19001   3.126  12.994   9.004  0.0394 -0.2137 -0.0376
15404W        W19002   7.465  11.902  13.363  0.2307  0.0574  0.2690
15405W        W19003  14.537   7.430   9.365  0.2624 -0.2098 -0.0731
15406W        W19004   1.163   5.479  10.634 -0.0511 -0.3029  0.5265
15407W        W19005   3.235   6.163   3.022  0.1585  0.0322 -0.1074
15408W        W19006   3.970   8.470   1.042  0.1596 -0.1024  0.0229
15409W        W19007  13.837   7.046  14.042 -0.0584 -0.1776  0.1378
15410W        W19008   6.239   2.672  12.052 -0.0470 -0.0669 -0.1598
15411W        W19009   5.197   6.787   9.162 -0.2265  0.1231  0.4666
15412W        W19010  10.832   5.724   5.040  0.0531  0.2505 -0.0448
15413W        W19011  10.290   0.738   8.933 -0.0614 -0.2289  0.0775
15414W        W19012  12.094   9.341   6.531  0.1599 -0.1752 -0.1731
15415W        W19013   1.533  11.067   6.717  0.0559  0.4738  0.1076
15416W        W19014   0.036   1.572  12.685  0.1930 -0.0890  0.0843
15417W        W19015  11.985   7.383   1.404  0.0235 -0.3767  0.1193
15418W        W19016   3.394  11.898   0.701 -0.0423 -0.1168  0.2759
15419W        W19017  14.503  14.553  11.057  0.0472 -0.1419 -0.0557
15420W        W19018   0.950   4.744  16.234 -0.1415 -0.0713 -0.0487
15421W        W19019   0.703  11.061  13.760 -0.2114 -0.0262  0.3351
15422W        W19020   2.062  15.862   9.372  0.2422 -0.1679  0.1424
15423W        W19021   7.513  10.086  13.876  0.0691 -0.0452 -0.0355
15424W        W19022  11.917  12.150  13.698 -0.0462  0.0148  0.0892
15425W        W19023  11.419  12.067   6.904 -0.0686 -0.0639  0.1346
15426W        W19024   9.465   2.834  11.677 -0.0174  0.2590 -0.2486
15427W        W19025   1.721  15.484   3.951 -0.0419 -0.0356 -0.0973
15428W        W19026   4.984   9.854   8.921 -0.0260 -0.0172  0.1931
15429W        W19027   6.696   6.807  14.800 -0.0273 -0.1848  0.0661
15430W        W19028   0.218  11.685   0.742  0.1161  0.0625  0.1442
15431W        W19029   0.989   5.921   7.797 -0.4327  0.0715 -0.0719
15432W        W19030   3.119   3.109  11.830 -0.0060  0.1040  0.2497
15433W        W19031   9.695  13.545   6.504 -0.1055 -0.0209  0.3549
15434W        W19032  11.062  13.039  13.164 -0.2081 -0.1465  0.1794
15435W        W19033   5.539  14.714   8.534 -0.2997  0.2351 -0.1904
15436W        W19034   6.241  11.346   6.546  0.1663  0.0123 -0.3626
15437W        W19035   9.081   5.788  11.973 -0.1409  0.0204  0.1619
15438W        W19036  14.470  10.207   0.033 -0.3928  0.1927 -0.2030
15439W        W19037   3.305   9.493  11.473 -0.0830 -0.3310  0.0930
15440W        W19038  14.645  11.137  11.383 -0.0711 -0.0478 -0.0584
15441W        W19039   1.211  14.186   4.876 -0.0420  0.0973 -0.3677
15442W        W19040  10.597   8.503  10.090  0.1756 -0.1379 -0.0557
15443W        W19041   5.538  10.383  12.133  0.1236  0.0253 -0.1877
15444W        W19042  10.975   8.473  14.971  0.0996  0.0444 -0.1626
15445W        W19043   7.215   3.075   0.167 -0.1521 -0.2629  0.0068
15446W        W19044   3.215  13.961   2.792 -0.2498  0.1490 -0.0980
15447W        W19045   4.381   1.850  16.071  0.3305 -0.0427  0.0134
15448W        W19046  11.233   2.610   1.061 -0.1954 -0.3808  0.0518
15449W        W19047  14.797  14.367   9.826  0.0678  0.0307  0.2215
15450W        W19048   5.886   9.734  13.243  0.0545 -0.0008 -0.1047
15451W        W19049  12.618   5.894   8.223  0.0141  0.0062  0.0736
15452W        W19050   8.560   2.626   2.311  0.0534  0.3641 -0.2256
15453W        W19051   9.714   4.844  13.888 -0.1804  0.0737 -0.1492
15454W        W19052   3.283   1.933   3.700  0.3461 -0.2494  0.0567
15455W        W19053   6.452   3.356  10.713  0.1670 -0.1329 -0.3866
15456W        W19054   2.170   0.845   6.520  0.1375 -0.1821 -0.1186
15457W        W19055  10.211  13.998  13.415  0.0372 -0.0292  0.1335
15458W        W19056  16.182  13.340   9.150 -0.0028  0.1915  0.5128
15459W        W19057  13.688   4.166   3.534  0.1350 -0.4861  0.0340
15460W        W19058   1.044  10.365  10.034  0.2611 -0.1075 -0.0468
15461W        W19059   0.111  10.538   0.718  0.2308 -0.4638 -0.1062
15462W        W19060  11.609   9.205   5.717 -0.0680 -0.0733  0.0985
15463W        W19061   3.543   4.550   0.567  0.0359 -0.2018 -0.2501
15464W        W19062   7.355   4.009   2.587 -0.1717 -0.1054 -0.2751
15465W        W19063  12.834   1.205   0.294  0.2944 -0.2972  0.2467
15466W        W19064   8.818  13.022   1.780 -0.0321 -0.0547  0.0993
15467W        W19065  14.679  15.052  14.657  0.0316 -0.4393 -0.1609
15468W        W19066  11.599   9.132  15.267 -0.3419  0.0686 -0.0256
15469W        W19067  14.952   0.538   9.843  0.0207  0.0868 -0.1490
15470W        W19068  13.434   1.410  14.317  0.0462 -0.2690  0.0217
15471W        W19069   5.972  15.581  11.982  0.2942 -0.1252 -0.1890
15472W        W19070   9.154   7.415   2.440  0.0475  0.2552  0.0546
15473W        W19071   0.657   2.446   2.063  0.1787  0.1026  0.1218
15474W        W19072  13.270  14.439   7.157  0.4173  0.1654  0.0484
15475W        W19073  16.173   1.309   7.140 -0.2638  0.1349  0.0785
15476W        W19074   6.726   0.983   7.804  0.3645  0.1115  0.0584
15477W        W19075   0.508   1.457   5.473  0.1524 -0.1216  0.0107
15478W        W19076   3.505   9.163  15.969 -0.0420 -0.1765 -0.0405
15479W        W19077   7.313   6.105   2.678 -0.0465  0.0805 -0.0153
15480W        W19078  12.765   9.137  15.466  0.3266  0.0440 -0.1354
15481W        W19079   4.736  12.195  10.865  0.0399 -0.0987 -0.1030
15482W        W19080  16.157   1.162   7.955 -0.1878  0.0774 -0.1525
15483W        W19081   7.607   0.003   8.166  0.0447  0.0906  0.1796
15484W        W19082  11.522   9.314  10.531  0.0214 -0.0719  0.2399
15485W        W19083   4.105   3.115  11.926  0.0471  0.0114  0.0431
15486W        W19084  12.092   8.420   2.884  0.0568  0.1628  0.1312
15487W        W19085  12.742   6.941   7.173  0.1488  0.1100 -0.3193
15488W        W19086  11.544   3.382  13.215  0.3402  0.0543 -0.1156
15489W        W19087   2.089   7.017  10.806 -0.0404  0.1939  0.1636
15490W        W19088   4.588   5.847   2.497 -0.1317  0.0165  0.2652
15491W        W19089  11.903   3.561   5.047 -0.1437  0.4310 -0.0276
15492W        W19090  15.260   6.697  11.988 -0.2895  0.1396 -0.1566
15493W        W19091  12.653  13.966   0.373 -0.3238 -0.0285 -0.0033
15494W        W19092  15.201  15.099   9.035 -0.0112 -0.1583 -0.1943
15495W        W19093   2.265  15.919   6.534  0.0411 -0.0161 -0.1439
15496W        W19094  12.727   3.687   1.252 -0.2576 -0.2447  0.3138
15497W        W19095  15.016  15.814  16.340 -0.0669  0.0269 -0.1770
15498W        W19096  10.755  16.000   2.793 -0.1849 -0.0519 -0.0045
15499W        W19097  15.682   2.398   5.372  0.0234  0.0327  0.0348
15500W        W19098  10.505   5.686   6.711 -0.0214  0.1221 -0.0993
15501W        W19099   0.141  12.083  11.819 -0.0550 -0.2230 -0.3890
15502W        W19100   7.866   6.307   9.166  0.0665  0.0356  0.2049
15503W        W19101   3.889  13.080  14.794  0.1185  0.2192  0.2209
15504W        W19102  13.406   7.886   7.179 -0.0962  0.0860 -0.2232
15505W        W19103   4.337  14.419   3.796  0.1140 -0.1969 -0.0711
15506W        W19104   8.404   7.019   2.585  0.2204 -0.0073 -0.2587
15507W        W19105   5.366   2.417   9.197 -0.2287  0.1260 -0.3102
15508W        W19106   7.742  11.970   5.803  0.1450  0.1095  0.1125
15509W        W19107   8.033  13.816   7.912  0.0408 -0.0282  0.1559
15510W        W19108   0.047  16.145   1.281 -0.1726  0.3202  0.3757
15511W        W19109   6.645   1.454   6.870 -0.1437 -0.3102  0.1158
15512W        W19110   3.628   3.303   4.864  0.0538  0.1918  0.1602
15513W        W19111   7.174  12.647  10.141 -0.1685  0.1783  0.4138
15514W        W19112  11.507   8.343   7.459 -0.0851 -0.0983  0.2112
15515W        W19113  12.913   8.848  10.421 -0.0308 -0.0109 -0.1478
15516W        W19114  14.104  10.499   4.390 -0.3645 -0.1361  0.2133
15517W        W19115  11.010  12.239  11.993  0.0700 -0.1822 -0.0393
15518W        W19116  15.915   2.582   0.789  0.0204 -0.0431 -0.0448
15519W        W19117  12.791  12.058   6.421  0.2919 -0.1580  0.2720
15520W        W19118   3.611   5.251  15.310  0.1490 -0.4709  0.1299
15521W        W19119   0.372   0.364   6.256  0.2612  0.4676  0.1413
15522W        W19120  15.877  15.482   7.039  0.0782  0.0409  0.2630
15523W        W19121  12.645  13.995   9.883 -0.0257 -0.0217 -0.6621
15524W        W19122   2.347   5.788   9.029 -0.3166 -0.2678 -0.1466
15525W        W19123  10.672  10.160   8.422 -0.1718  0.0301  0.2277
15526W        W19124   7.253   2.517  10.804  0.1871  0.0332 -0.1701
15527W        W19125   8.765  11.794   8.331 -0.2652 -0.1748  0.0524
15528W        W19126   9.599   8.806   2.833 -0.0707 -0.1417  0.2069
15529W        W19127  11.162   7.862   1.151 -0.0194  0.3108  0.2337
15530W        W19128   3.786  10.856   9.666  0.1532  0.1420  0.0079
15531W        W19129  13.445   9.292   3.019 -0.2840 -0.1391  0.2623
15532W        W19130   2.136   5.932   3.920 -0.0936 -0.0537 -0.2189
15533W        W19131   2.195   3.542  13.087 -0.1865  0.0198 -0.0226
15534W        W19132   4.115   3.606  10.613 -0.0994 -0.0957 -0.1831
15535W        W19133  12.288  14.876   3.110  0.0569 -0.0071  0.0270
15536W        W19134   1.189   4.727  11.134 -0.3444 -0.1430 -0.2447
15537W        W19135   2.497   7.117  11.632  0.0955  0.0496 -0.0113
15538W        W19136   0.351   5.120   8.047  0.0446  0.2353 -0.1405
15539W        W19137  13.017  10.884  14.755 -0.1385  0.0856 -0.2087
15540W        W19138  15.898   3.448   3.220 -0.3633  0.1817  0.2634
15541W        W19139   9.407  12.885   5.531  0.0200  0.1798 -0.1911
15542W        W19140   4.961   9.423  11.335  0.0256  0.1924  0.3512
15543W        W19141   6.787   3.758  11.685 -0.0740 -0.2389 -0.2174
15544W        W19142  14.901   3.530   3.304  0.0085  0.1777 -0.1354
15545W        W19143   9.894   3.047   7.028 -0.1528 -0.4106 -0.0002
15546W        W19144   1.958   5.871  12.905 -0.0505 -0.1537  0.2016
15547W        W19145  11.600   7.700   6.708  0.0414  0.5429  0.0737
15548W        W19146  11.314   3.922  10.283  0.2782  0.0923 -0.0494
15549W        W19147   2.128   9.297   4.272  0.2019 -0.2674  0.0250
15550W        W19148   0.219   1.791  10.551 -0.1293  0.0907 -0.0276
15551W        W19149   7.679   3.941   5.119 -0.0918  0.0395  0.0389
15552W        W19150   8.751   0.660   7.115 -0.0650  0.1536 -0.1108
15553W        W19151   0.038  16.330   5.041  0.1532 -0.1412 -0.1349
15554W        W19152  14.299   1.874   2.664 -0.1384  0.0323  0.1362
15555W        W19153   2.702  14.818   5.183  0.0043  0.0984 -0.2420
15556W        W19154   4.723   5.175  14.158  0.1972 -0.1942 -0.1954
15557W        W19155   7.007  11.679   7.267 -0.0607 -0.3557  0.1894
15558W        W19156  13.754   9.738   6.842 -0.0438  0.2149 -0.0697
15559W        W19157   2.599   3.974  12.887  0.0289  0.0161  0.0981
15560W        W19158  12.931   0.875   1.573 -0.0028  0.2421 -0.0874
15561W        W19159   6.848  16.380  12.574  0.1234  0.1387 -0.2048
15562W        W19160  10.439  15.538  13.852 -0.1038  0.1664 -0.0624
15563W        W19161   7.633   3.266  12.240  0.0631  0.0665 -0.2902
15564W        W19162  10.549  10.127  11.467 -0.2573  0.2915  0.3220
15565W        W19163   1.152   1.136  12.038  0.2818  0.1890 -0.2510
15566W        W19164  12.336   1.839   0.337  0.0832 -0.1983 -0.0668
15567W        W19165  11.834   0.189  13.795  0.1970 -0.4947  0.0497
15568W        W19166  10.208   5.278  16.223  0.1628  0.0638 -0.3738
15569W        W19167   6.515   3.320  12.448  0.1866 -0.0130 -0.0060
15570W        W19168   8.946  15.632   0.181 -0.0442 -0.3199  0.2829
15571W        W19169  10.207  15.976   2.669 -0.2249  0.0984 -0.3986
15572W        W19170   1.617  11.906  13.684  0.0438  0.3090 -0.1979
15573W        W19171   5.100  11.951   0.301  0.0269  0.1060 -0.1292
15574W        W19172   9.487   7.285   4.319 -0.0783 -0.1909 -0.1914
15575W        W19173  11.636   8.753  11.559  0.2085  0.2627 -0.1119
15576W        W19174   1.066   2.225   2.421 -0.0219 -0.0890 -0.0689
15577W        W19175   0.761  10.409   9.654  0.2745 -0.0162 -0.0944
15578W        W19176   7.699  10.601   9.477 -0.2390  0.2621 -0.1114
15579W        W19177  11.258   9.464   2.727  0.1244 -0.1250 -0.2505
15580W        W19178  12.085   6.435  13.396  0.1448 -0.2725  0.1911
15581W        W19179  13.993   9.977  15.448  0.0309  0.2369  0.0704
15582W        W19180   5.381   3.645  10.026 -0.1048 -0.0587 -0.1439
15583W        W19181   2.527   2.822   1.571 -0.1675  0.2917  0.2785
15584W        W19182  13.770   2.890   8.054 -0.0782  0.2761 -0.0549
15585W        W19183   1.976   0.576  14.019  0.2185  0.2769  0.2645
15586W        W19184  12.153   0.307   1.271 -0.1445 -0.1231  0.2069
15587W        W19185   2.761   6.286  13.368  0.1009  0.0021 -0.1138
15588W        W19186   6.505   0.193  14.280  0.1765  0.0964  0.1219
15589W        W19187  14.706  12.081  15.526 -0.2380 -0.0797 -0.1088
15590W        W19188   9.267  15.196  15.553 -0.1131 -0.0069 -0.1058
15591W        W19189  12.263   2.883  13.003  0.1649 -0.2357  0.0010
15592W        W19190   5.917  14.703  16.239 -0.0494  0.1337 -0.0416
15593W        W19191  13.230   9.254  15.724 -0.0157  0.0885  0.1192
15594W        W19192  15.527   3.554   0.885 -0.1975  0.4973  0.1231
15595W        W19193   7.276   5.896  16.176  0.1008  0.3129 -0.2199
15596W        W19194   5.943   0.348  11.130  0.0279  0.1898  0.1873
15597W        W19195  14.175  14.804   1.975  0.2600 -0.1694 -0.1435
15598W        W19196   7.157  10.828   7.740 -0.0278  0.2234  0.0386
15599W        W19197  15.601  16.206   2.191 -0.1196  0.0495 -0.1103
15600W        W19198   6.244   8.206  12.778  0.4358 -0.2409 -0.1453
15601W        W19199  15.022   6.232   9.661  0.1820  0.1712 -0.0648
15602W        W19200   0.573  11.624  14.635 -0.1590  0.0749 -0.1014
15603W        W19201  12.838   2.034   6.166 -0.0330  0.4010 -0.2043
15604W        W19202   8.392   6.879   8.804  0.1865 -0.1702  0.0780
15605W        W19203  12.396   8.356   4.911 -0.0364 -0.2143 -0.0109
15606W        W19204   0.529   0.070   3.850 -0.0304  0.3286  0.0812
15607W        W19205  12.430  14.533   4.208 -0.2606  0.2114  0.0712
15608W        W19206   5.928  12.984  15.635  0.1843 -0.2297  0.1779
15609W        W19207  15.054  12.132  12.686  0.0730  0.0508 -0.1523
15610W        W19208   7.217   0.393   9.027 -0.2854  0.0151 -0.3453
15611W        W19209  15.899  15.083   9.974 -0.1821  0.2538 -0.3296
15612W        W19210   6.022   1.321   8.182  0.0539 -0.0133 -0.0660
15613W        W19211   0.533   5.004   3.291 -0.2173  0.0981 -0.1652
15614W        W19212   9.708   8.909  13.532 -0.0768  0.1918 -0.0932
15615W        W19213  12.292  15.516   4.075 -0.2820  0.0389 -0.1477
15616W        W19214  10.161  13.269   5.269 -0.1618 -0.1418 -0.0967
15617W        W19215   2.772   9.798   3.572  0.1490 -0.0457 -0.1654
15618W        W19216  12.850   0.628   4.615 -0.0978 -0.0843  0.2860
15619W        W19217  12.549   1.973  11.758  0.1759 -0.3420 -0.0617
15620W        W19218  15.361  14.426  15.638  0.1750  0.0655  0.2455
15621W        W19219  13.963  11.538   3.085 -0.2763  0.2832 -0.0989
15622W        W19220   7.116   3.652  10.152 -0.2637  0.1391 -0.2346
15623W        W19221   6.412   6.460   7.290 -0.1469  0.0388 -0.0993
15624W        W19222   7.039  13.943  15.953  0.0233 -0.1004 -0.2007
15625W        W19223  16.371  14.134  11.514  0.2266  0.0601 -0.2065
15626W        W19224   0.212   3.500   5.700  0.3565  0.0124 -0.2919
15627W        W19225   3.683  10.992   2.541  0.5405 -0.1506 -0.0722
15628W        W19226   7.418  15.466   7.360  0.1292 -0.1337 -0.2020
15629W        W19227   8.093  13.561  13.831  0.0715  0.2522  0.0185
15630W        W19228  14.788  10.045   3.476  0.3560  0.2940  0.1846
15631W        W19229   2.006   8.991  15.039 -0.2189  0.2125 -0.0962
15632W        W19230  15.637  15.311   8.748 -0.2990 -0.1407 -0.1666
15633W        W19231   3.813  10.396   9.454 -0.0156 -0.1156 -0.0571
15634W        W19232   4.234   3.031   8.852 -0.1369 -0.0620 -0.1667
15635W        W19233   1.494   8.176   5.718 -0.2012 -0.3107 -0.0597
15636W        W19234   0.061  14.177   1.418 -0.1156  0.1432  0.3596
15637W        W19235   5.121   7.531  11.521  0.3248  0.0861 -0.0515
15638W        W19236   7.792   8.986  12.496 -0.0126  0.0757 -0.0114
15639W        W19237   4.351   0.040  14.962  0.4356  0.1431  0.3857
15640W        W19238   8.571  12.963   0.547  0.2398 -0.3727  0.0133
15641W        W19239   6.523   4.159  13.714 -0.0492  0.4947  0.1873
15642W        W19240  10.553   4.176   0.375 -0.2430  0.4092 -0.3609
15643W        W19241   8.654   0.995   3.533  0.2001 -0.0997 -0.1723
15644W        W19242   5.629  15.627   7.209 -0.0565 -0.0716 -0.0261
15645W        W19243  12.433   1.573  13.181 -0.2757  0.1320 -0.2985
15646W        W19244   9.872  12.256  14.748 -0.0725  0.0898 -0.1203
15647W        W19245   4.276   4.999   8.018 -0.2636 -0.0096 -0.2230
15648W        W19246  14.353  14.923  13.522  0.3721 -0.0632 -0.0091
15649W        W19247   2.307   9.545   7.419  0.4265 -0.2371 -0.4088
15650W        W19248   6.827   2.611   6.649  0.0983 -0.1497 -0.1580
15651W        W19249   2.838   3.199  13.600 -0.0390  0.2552 -0.2607
15652W        W19250   3.172   7.080  13.267  0.0246 -0.2101 -0.0474
15653W        W19251  11.735  15.500  11.966  0.2104  0.0215 -0.4657
15654W        W19252  12.481   0.861   6.323 -0.1586 -0.2826  0.1782
15655W        W19253   0.503  13.653   5.268 -0.2770 -0.1705  0.4161
15656W        W19254  12.565   7.702   3.742 -0.1389  0.3075  0.2513
15657W        W19255   7.219  15.487  15.545  0.3091  0.2390  0.1885
15658W        W19256   0.991  11.361   7.445 -0.3135  0.0397  0.0650
15659W        W19257   9.267  15.585   7.280  0.3351 -0.0678  0.1653
15660W        W19258   7.612   4.233   0.409  0.0213  0.3840 -0.2382
15661W        W19259   2.979  14.202   6.023  0.0179  0.0002  0.1399
15662W        W19260  13.955   1.159   2.265  0.0742  0.0688 -0.1606
15663W        W19261   9.000   2.294  10.111 -0.0968  0.0783  0.0064
15664W        W19262   9.011  12.793   0.722 -0.1611 -0.0044  0.1575
15665W        W19263   9.520  14.371   2.961  0.3382  0.1648 -0.0709
15666W        W19264   0.765   8.713   0.077 -0.0772  0.0462  0.0274
15667W        W19265  11.544  11.608  16.163  0.0729 -0.2812 -0.1383
15668W        W19266  12.338   2.708  12.132  0.0027 -0.1062 -0.1234
15669W        W19267   7.690  12.527   8.680 -0.1878 -0.0874  0.0202
15670W        W19268   5.045   7.804  11.120  0.0761  0.0504  0.1703
15671W        W19269  10.634   9.023   7.057  0.1874 -0.0397 -0.1032
15672W        W19270  12.249   4.821   2.046  0.2616 -0.2326 -0.1981
15673W        W19271   2.067   6.591   9.442 -0.3634 -0.1796  0.1198
15674W        W19272   1.414   0.330   8.065  0.0783  0.1193 -0.0502
15675W        W19273   0.519  11.446   8.739 -0.0559 -0.3869  0.2868
15676W        W19274  10.464  12.889   3.097 -0.1714 -0.0084  0.0205
15677W        W19275   8.685   1.890  11.865 -0.0113 -0.1276  0.0476
15678W        W19276  15.382  13.334  13.571  0.2350 -0.3290  0.0931
15679W        W19277   5.705   9.665  10.140 -0.0193  0.1846 -0.2711
15680W        W19278   3.243  12.857  10.521 -0.1721 -0.0990  0.2565
15681W        W19279   8.843   1.369   5.384 -0.2026 -0.1851  0.0760
15682W        W19280   1.965   1.006   6.057  0.0340 -0.0095  0.0091
15683W        W19281  11.802  15.740   5.073 -0.0682  0.0860  0.0290
15684W        W19282   2.761   0.649   9.370 -0.0398  0.3897 -0.0314
15685W        W19283   8.898   0.145   0.454  0.1404  0.2889 -0.1858
15686W        W19284   9.094   6.265  12.290 -0.3801  0.0420 -0.0704
15687W        W19285   4.975  12.359  14.921  0.0206  0.0075  0.0152
15688W        W19286  14.211   1.890  11.542  0.1250  0.0197  0.2554
15689W        W19287   5.436   4.326   3.056  0.6801 -0.1617 -0.3305
15690W        W19288  11.393   6.505  13.665 -0.1034 -0.0553  0.1734
15691W        W19289   3.903   3.614   2.158  0.0428 -0.1211  0.1252
15692W        W19290   2.462   5.730  10.938 -0.2097  0.1789  0.1661
15693W        W19291   0.196   8.939  13.143  0.2519 -0.0162  0.1245
15694W        W19292   8.898   2.442  10.553 -0.0396 -0.3221 -0.0702
15695W        W19293   0.110   5.251  13.135 -0.4711  0.2985  0.1769
15696W        W19294  11.064   0.040   2.766  0.3482  0.1458  0.1865
15697W        W19295  13.348   9.401  13.811  0.1665 -0.3440 -0.3415
15698W        W19296  15.043   2.552  12.553  0.1848  0.0721 -0.0214
15699W        W19297   5.932   5.953  11.946 -0.0957 -0.2219  0.0133
15700W        W19298   7.762   9.003   9.792  0.1586 -0.3031  0.1132
15701W        W19299   1.998  13.490  10.086  0.0769  0.1017 -0.1467
15702W        W19300  12.219   8.001   0.194 -0.0628  0.2418  0.1348
15703W        W19301   9.053   2.086  12.909  0.1658 -0.0047  0.0676
15704W        W19302   1.995  10.761  12.579 -0.1375 -0.1125 -0.1472
15705W        W19303   0.154   5.213   2.502 -0.1544 -0.1411  0.1759
15706W        W19304   0.488   8.712  11.081 -0.0737  0.0783  0.3869
15707W        W19305  13.515   0.863  10.732 -0.1019  0.0725 -0.0190
15708W        W19306  12.364   6.273   8.429  0.0711  0.2963  0.2879
15709W        W19307   1.610   4.816   4.213 -0.1175 -0.0320  0.1813
15710W        W19308   5.670  13.168   5.088  0.3566 -0.2357 -0.0468
15711W        W19309  10.052   7.395   8.177  0.3139 -0.2126 -0.2264
15712W        W19310   3.234   9.691  16.172  0.2892  0.0685 -0.4569
15713W        W19311   1.715   6.219   9.437  0.2435 -0.0151  0.2872
15714W        W19312   6.946  14.538  10.342 -0.0832 -0.2003 -0.0538
15715W        W19313   1.786   6.011   3.492  0.1146 -0.3382 -0.1177
15716W        W19314   3.770   6.927   9.409 -0.1790 -0.0831 -0.0436
15717W        W19315   7.892   3.365   8.443  0.0047  0.0069 -0.0390
15718W        W19316   9.825   6.130   7.289  0.1452  0.0832 -0.1221
15719W        W19317   2.299  14.380  12.532  0.0418  0.3132  0.0816
15720W        W19318  16.037  15.234   2.824  0.0352 -0.0209 -0.0368
15721W        W19319   7.783   6.256   0.898 -0.2581  0.0882  0.0437
15722W        W19320  15.001   0.081   3.764  0.2855  0.1920  0.0216
15723W        W19321   8.299  15.419   7.351  0.1165 -0.1780 -0.0494
15724W        W19322  15.279   9.862  10.517 -0.1132  0.2595  0.1449
15725W        W19323  15.190   2.412  15.395 -0.0053  0.0655  0.1016
15726W        W19324  13.238  13.859   4.209 -0.2375 -0.0269  0.3793
15727W        W19325   6.106  13.032  13.243  0.0230  0.1268  0.1688
15728W        W19326   9.424  16.308   9.446 -0.0749 -0.0172  0.0566
15729W        W19327  12.297   0.560  13.655  0.0480  0.3251 -0.3282
15730W        W19328  13.289   1.663  15.247  0.3656  0.1260 -0.3295
15731W        W19329  12.082   6.379  11.716 -0.0026  0.1391  0.1494
15732W        W19330  12.728  16.100  15.776  0.0319  0.1816  0.4741
15733W        W19331   3.175   6.899   5.624 -0.0145  0.2491 -0.1370
15734W        W19332  12.621   1.160  10.403 -0.0813  0.0811  0.2328
15735W        W19333   3.825   2.404  12.890  0.1696  0.1233  0.1226
15736W        W19334   4.507   4.396  14.603 -0.0652 -0.0302 -0.0064
15737W        W19335   1.874  11.727   7.186 -0.2047  0.1965  0.1259
15738W        W19336  11.839  11.809   6.000 -0.0412 -0.2020 -0.2611
15739W        W19337   5.203   0.394   1.213  0.1616 -0.0389  0.0286
15740W        W19338  11.162   9.457   5.942  0.2669  0.0152 -0.1175
15741W        W19339   4.759  11.991  13.006  0.2571  0.0353  0.2677
15742W        W19340   4.693   6.342   7.386 -0.2010 -0.3531  0.0187
15743W        W19341  14.052   8.977   2.432 -0.2039  0.2197  0.2771
15744W        W19342   3.304  11.172  14.871  0.1558 -0.1016  0.2093
15745W        W19343   2.977   5.945   4.865 -0.0743  0.0755 -0.2310
15746W        W19344   9.556   8.414   5.622  0.0632 -0.1753  0.0161
15747W        W19345   5.677   5.738   9.517  0.0274  0.0777  0.0037
15748W        W19346   8.616  13.235  11.651 -0.1303  0.2411  0.1469
15749W        W19347   1.321   9.972   8.439 -0.3501  0.4162  0.0613
15750W        W19348   3.682   4.877  14.037  0.0990 -0.1300 -0.2737
15751W        W19349   6.524   3.730   9.469 -0.2684  0.1040 -0.2016
15752W        W19350  16.100  10.179  15.224 -0.1563 -0.1580 -0.0380
15753W        W19351  11.581   1.221  10.091  0.0038 -0.4033 -0.0677
15754W        W19352  13.905  10.960   8.368  0.0567  0.0724 -0.1328
15755W        W19353   0.418  10.176  15.503  0.3279 -0.0934 -0.1250
15756W        W19354   9.569  12.501  12.466 -0.0353 -0.0288 -0.0105
15757W        W19355   2.748  15.423   9.938 -0.1888 -0.1360  0.3843
15758W        W19356   9.128   0.987  16.143 -0.0384 -0.0574  0.2438
15759W        W19357   8.576   8.566  14.693  0.0178 -0.0535 -0.2772
15760W        W19358  13.929   7.731  15.048 -0.0890 -0.3259 -0.0002
15761W        W19359   5.779  14.220   6.631  0.0102 -0.0398 -0.2718
15762W        W19360  11.999  16.130  12.754  0.0537  0.0465  0.0353
15763W        W19361   9.791   6.210   9.467  0.1815  0.1563  0.1409
15764W        W19362   5.492  15.161  15.489 -0.1638  0.1490 -0.0832
15765W        W19363  11.273  14.183   7.928 -0.3612 -0.0033  0.2534
15766W        W19364   9.449   1.702  13.150 -0.0692  0.0730  0.1890
15767W        W19365   6.052   7.583   1.590 -0.0261 -0.1623 -0.2284
15768W        W19366   9.824  11.767   9.650 -0.1898 -0.0883  0.2496
15769W        W19367   1.810  13.557  14.355  0.1566 -0.0283  0.0866
15770W        W19368  16.358   7.495  15.754 -0.1536  0.1700 -0.0677
15771W        W19369  15.581  15.522   2.794 -0.0926  0.2340  0.2953
15772W        W19370   5.690   9.783   7.016 -0.1515 -0.0580 -0.2697
15773W        W19371  11.453   8.121   2.184 -0.0780  0.2018 -0.2951
15774W        W19372   0.091   0.421  11.457  0.1673 -0.0070  0.1153
15775W        W19373   5.002   0.113   4.163  0.1537 -0.0347  0.1287
15776W        W19374   4.671  12.032  15.818 -0.1150 -0.0780  0.0845
15777W        W19375   5.691  13.105  13.555 -0.3997 -0.2121  0.1091
15778W        W19376  12.422  13.659  10.467 -0.3087  0.1047 -0.0275
15779W        W19377  15.336   7.235   8.366  0.3514 -0.2020 -0.0049
15780W        W19378  12.498   3.110   9.634  0.0439  0.3631  0.2516
15781W        W19379   9.477  13.949  11.031 -0.2099 -0.1191 -0.1312
15782W        W19380   1.293  11.055  12.136  0.0720 -0.0826  0.3446
15783W        W19381  14.710   6.956   5.778 -0.0394 -0.2830  0.0623
15784W        W19382  12.914   9.770   9.318 -0.1602 -0.1562  0.2701
15785W        W19383  12.993  10.512  13.916  0.1150  0.1559 -0.1807
15786W        W19384   4.644  10.110  13.633 -0.3978 -0.0354 -0.1585
15787W        W19385  12.912   6.531  16.222  0.3277 -0.1322  0.2193
15788W        W19386   8.417   4.086  10.811 -0.0435 -0.2481 -0.0015
15789W        W19387  12.816   7.235   1.675  0.2653 -0.1402 -0.1104
15790W        W19388  14.178   1.454   4.282 -0.0199 -0.1227 -0.2258
15791W        W19389  12.803   4.808  14.788 -0.1345  0.0665 -0.2664
15792W        W19390   3.902  14.045   8.445 -0.3817  0.0023  0.0428
15793W        W19391  11.189  16.079  14.861 -0.0594  0.0993  0.1980
15794W        W19392  10.456   6.637  15.840 -0.4103 -0.1083  0.1161
15795W        W19393  15.073   6.534   0.677  0.0218 -0.2875  0.1700
15796W        W19394  10.421   5.105   5.148  0.1341 -0.2220  0.2811
15797W        W19395   0.984  15.893   8.653  0.0038  0.4319 -0.0796
15798W        W19396  10.363   2.714   2.055  0.3039  0.1622 -0.1318
15799W        W19397  10.994  15.317  15.111 -0.1994 -0.0444 -0.2113
15800W        W19398  10.204  11.801  16.339  0.0824  0.0161 -0.2258
15801W        W19399   5.750   3.129   1.181 -0.4436  0.0257 -0.2018
15802W        W19400   9.271   1.463   8.651 -0.0994  0.0572  0.0106
15803W        W19401  15.645   0.662  12.109  0.2074 -0.0430  0.0031
15804W        W19402   3.274   1.837  12.942  0.1465  0.1342  0.1144
15805W        W19403   7.315   9.971  11.774 -0.1852  0.1786  0.1100
15806W        W19404  12.229  13.188  12.737  0.1418  0.1127  0.0692
15807W        W19405  13.449   1.289   7.428 -0.0354  0.0432 -0.0659
15808W        W19406   8.384  12.344   6.198  0.0865 -0.0546 -0.1418
15809W        W19407   0.676  13.989   6.161 -0.1149  0.2021  0.1280
15810W        W19408  15.588   2.798  12.147  0.1074  0.1929 -0.1190
15811W        W19409   4.595  14.259  16.013 -0.1522 -0.3020  0.3775
15812W        W19410   4.761  12.939  12.419 -0.2243  0.3581  0.4200
15813W        W19411   1.814  10.498   0.302 -0.1413  0.0612  0.1753
15814W        W19412  12.199   3.913   8.979 -0.0508  0.1010 -0.0303
15815W        W19413  15.046   7.767  13.416  0.1834  0.2299 -0.1054
15816W        W19414   4.764  11.577   2.457 -0.2445 -0.1640 -0.1471
15817W        W19415   0.762  12.704   5.736  0.0068  0.1474 -0.0921
15818W        W19416   2.114  15.894  10.764  0.0359  0.1550  0.2003
15819W        W19417  12.192   5.792  15.319 -0.0044 -0.0706  0.3151
15820W        W19418  15.151   9.415  16.293  0.2706 -0.1249  0.3463
15821W        W19419   7.281   9.579  11.455  0.1495 -0.2260 -0.1889
15822W        W19420  15.112   2.218  13.342 -0.0089  0.1518  0.3073
15823W        W19421  10.391   0.873  12.951  0.0079  0.0467  0.2380
15824W        W19422   4.602   4.761   0.758  0.0338  0.3971  0.3090
15825W        W19423  12.881   4.763   6.393  0.1989  0.2624 -0.5497
15826W        W19424   5.134   0.134   6.016 -0.3078  0.4667 -0.0698
15827W        W19425   4.259   5.808  15.786 -0.1479 -0.0577 -0.3983
15828W        W19426   2.426   7.116  14.636  0.1727 -0.0945  0.0888
15829W        W19427   9.558   7.177  11.546 -0.0119 -0.2411  0.2025
15830W        W19428  14.386  12.225   1.727  0.1987 -0.0510 -0.1103
15831W        W19429   0.522   7.560  13.338  0.5655  0.3470 -0.2491
15832W        W19430   0.345  10.671  14.627 -0.3949  0.0515  0.1810
15833W        W19431   4.469  13.033   3.554  0.1654  0.0778  0.2095
15834W        W19432  10.052   2.980  16.245 -0.0517  0.1332 -0.0637
15835W        W19433   3.371   6.182  10.874  0.2806  0.2073  0.0886
15836W        W19434   2.797   0.752   4.777  0.2909  0.1869 -0.0188
15837W        W19435  13.683   9.023   7.906 -0.0757  0.0056  0.0421
15838W        W19436   3.600  13.271  10.272 -0.1088  0.1919  0.1782
15839W        W19437   4.469  14.549   2.119  0.0072  0.0145 -0.1605
15840W        W19438   9.025  11.393   4.067  0.1156  0.4059 -0.3589
15841W        W19439   8.891   1.026  11.307  0.1234  0.0785  0.0501
15842W        W19440  13.302   3.247   3.401 -0.1520  0.0271 -0.2563
15843W        W19441  10.761  11.510   5.176 -0.1765  0.2476 -0.2122
15844W        W19442   2.520   9.112  14.503 -0.0409  0.0106 -0.3127
15845W        W19443   0.313   5.276   5.696 -0.2230  0.0076  0.1113
15846W        W19444  12.519  14.305   5.393  0.0266  0.0852  0.1175
15847W        W19445  11.154   7.722   5.174  0.2342  0.3440  0.0648
15848W        W19446   4.666  14.778  13.707 -0.1672 -0.0573  0.2386
15849W        W19447   4.505   4.666  14.084 -0.0948  0.1181  0.1284
15850W        W19448   2.821  14.821   7.870  0.0030 -0.1374 -0.1659
15851W        W19449  14.643   6.693  16.324  0.0492 -0.0888  0.0390
15852W        W19450   1.740   4.641  10.612  0.1594 -0.1409 -0.2431
15853W        W19451   3.129   3.232   2.153  0.1221  0.1102  0.0102
15854W        W19452  15.740  13.199  13.969  0.1950 -0.2088  0.1026
15855W        W19453  15.138  10.211   7.583 -0.3411  0.1155  0.1079
15856W        W19454  10.392   9.871   7.719 -0.2029  0.2872 -0.0576
15857W        W19455   7.549   5.594   2.924  0.2835  0.3540 -0.0604
15858W        W19456   8.988   5.921   7.566 -0.1094 -0.1898 -0.1394
15859W        W19457  16.270   3.644   3.518 -0.2589  0.1526 -0.0108
15860W        W19458  13.913  15.051   3.324 -0.0866 -0.0777  0.2783
15861W        W19459   7.852  15.159  13.765  0.1273  0.2936  0.1054
15862W        W19460   0.255   9.186  10.275 -0.1984 -0.1428  0.1070
15863W        W19461   9.080   1.750   3.314 -0.0109  0.1202 -0.1279
15864W        W19462  12.335   5.905   3.532 -0.0747  0.3115  0.0863
15865W        W19463   5.231  13.410   6.397 -0.5230  0.1056 -0.1065
15866W        W19464   6.115   9.186   9.522 -0.1289 -0.1205 -0.0655
15867W        W19465   6.230   8.453   9.412  0.1950 -0.3794 -0.0222
15868W        W19466   3.169   9.849   9.851 -0.0930 -0.1202 -0.0081
15869W        W19467   2.823  11.503   4.108 -0.0889 -0.2998  0.1164
15870W        W19468   0.258   4.320   4.747  0.2068  0.2039  0.4302
15871W        W19469   3.600  14.771  15.129 -0.1563 -0.1833  0.1161
15872W        W19470  10.918  11.656   0.472  0.0226  0.1515 -0.1836
15873W        W19471   4.526  12.276  10.413 -0.0464 -0.0789 -0.3661
15874W        W19472   0.323   3.629   6.437 -0.2495  0.1447 -0.2064
15875W        W19473   7.637   2.360   5.509 -0.0223  0.0725  0.2429
15876W        W19474   3.223   2.321   9.674  0.0855 -0.0086 -0.1023
15877W        W19475   0.060   2.615   3.211 -0.0971  0.1358 -0.0694
15878W        W19476   6.172   0.845   7.994  0.1497 -0.1673 -0.2704
15879W        W19477  10.218  14.179  15.539  0.1884  0.1373  0.0070
15880W        W19478   7.260   2.656   9.480  0.2968  0.1194 -0.1982
15881W        W19479   0.636  15.048   8.615 -0.1263  0.1402  0.0878
15882W        W19480   0.792   7.921  10.318  0.0462 -0.1448 -0.2081
15883W        W19481  11.213   7.844   2.569 -0.2356  0.3999  0.2020
15884W        W19482   0.328   9.420   3.844 -0.0849 -0.1526  0.0834
15885W        W19483   0.739   5.828   5.136  0.2015 -0.1490 -0.1249
15886W        W19484   9.208  12.363   4.071  0.1215 -0.1079  0.4170
15887W        W19485   5.674   3.087  12.757 -0.1571  0.0463  0.1350
15888W        W19486   5.193   6.048   4.792  0.3187  0.2577  0.0254
15889W        W19487  15.972   0.317   3.960 -0.2777  0.1385  0.0278
15890W        W19488  11.198  14.018   1.728 -0.2548  0.0011  0.1542
15891W        W19489   2.550  13.372  15.064  0.1509 -0.0390 -0.0902
15892W        W19490   8.222   5.961  13.734 -0.0578  0.0209 -0.0178
15893W        W19491   6.900  10.543   6.388  0.4067  0.1997  0.0091
15894W        W19492   0.879   2.240   0.972 -0.1155 -0.1561  0.3439
15895W        W19493   4.914  15.685   1.517  0.0928 -0.2109 -0.4029
15896W        W19494   2.933   4.968   3.668  0.1805  0.2666 -0.1733
15897W        W19495  14.550   5.993  14.495 -0.0922  0.0060 -0.0198
15898W        W19496   3.648  16.112  15.776  0.3051 -0.1256  0.0386
15899W        W19497   8.199  15.428  11.129 -0.0564 -0.2497  0.0772
15900W        W19498  13.186  10.229  10.027  0.0800 -0.1460 -0.0254
15901W        W19499   5.107   8.728  15.480  0.0982  0.1199  0.2301
15902W        W19500   6.071  11.713  15.195  0.0525  0.0353  0.0753
15903W        W19501   6.930   3.507   0.949 -0.0327 -0.0344  0.0150
15904W        W19502   4.172   1.602  12.733 -0.3921  0.1182 -0.1873
15905W        W19503  11.910  16.177   3.335  0.4297 -0.1490  0.0166
15906W        W19504  13.401   4.627   2.081  0.0638  0.0185 -0.5057
15907W        W19505  15.396   0.250   4.754 -0.0957 -0.0463  0.1174
15908W        W19506   6.097   2.489  13.446  0.0960 -0.0043  0.1711
15909W        W19507   0.776   6.798   8.980 -0.0948 -0.0323  0.0780
15910W        W19508   6.661   4.421   7.782  0.0658  0.1369 -0.0022
15911W        W19509  13.163   9.386  10.745 -0.1522 -0.0406  0.3450
15912W        W19510  10.873  13.815   2.996 -0.1269 -0.0297  0.0351
15913W        W19511   3.037   9.889  14.521 -0.2499  0.0292  0.3743
15914W        W19512   5.780   5.220  16.191  0.1012 -0.0310  0.2941
15915W        W19513   4.785   2.996   3.406 -0.0318 -0.0809  0.3055
15916W        W19514   1.480   9.708   7.202 -0.0361 -0.0928  0.1956
15917W        W19515   4.857  10.460   9.197  0.2565  0.1973  0.1814
15918W        W19516  10.671   5.329   0.471  0.0842 -0.0245  0.0839
15919W        W19517   4.077   1.407   0.817 -0.0513 -0.0197 -0.3479
15920W        W19518  14.603  14.905  11.888 -0.2840  0.1440 -0.0284
15921W        W19519   1.800   0.370   7.695 -0.3081 -0.0043 -0.5696
15922W        W19520   3.072  14.702   8.352  0.2168 -0.4827 -0.0708
15923W        W19521  15.395   9.443  13.484  0.2737 -0.1390 -0.3372
15924W        W19522  12.438   0.515   4.970  0.0555  0.2156  0.0120
15925W        W19523   6.256   6.558  15.756 -0.1003 -0.2005  0.0467
15926W        W19524   8.753   4.735   7.243 -0.0292 -0.0280  0.2861
15927W        W19525  15.993   6.380  14.708  0.1070 -0.0311 -0.0374
15928W        W19526   4.081   2.105   1.086 -0.1903  0.3237  0.1032
15929W        W19527  10.726   8.078  11.921  0.2852 -0.1184 -0.0158
15930W        W19528   2.110   6.895  15.876 -0.0114  0.0197 -0.0011
15931W        W19529   2.720   8.641   2.758  0.2332 -0.0813 -0.4651
15932W        W19530   6.948  13.557   3.370 -0.4397 -0.1069 -0.2340
15933W        W19531   7.349  12.028   4.428 -0.0802 -0.0713  0.0947
15934W        W19532   1.066  10.093   2.673 -0.1312  0.1899  0.0163
15935W        W19533  13.350  10.947   3.353 -0.1450  0.0880  0.0525
15936W        W19534   0.627  12.057   0.916  0.2822  0.0362  0.1315
15937W        W19535   5.147   0.875   6.815  0.3898  0.1769 -0.0977
15938W        W19536  14.008  11.422   0.714 -0.0524  0.2017  0.2303
15939W        W19537   8.364  10.206  16.028  0.2516 -0.0389  0.0892
15940W        W19538  11.842   1.511   4.649 -0.3950  0.0813  0.0330
15941W        W19539   6.773   1.432   1.188  0.2429  0.0784 -0.0025
15942W        W19540  10.719   9.086   2.213  0.0649  0.0366  0.0466
15943W        W19541  13.381   4.600   9.290 -0.1363  0.1338 -0.4118
15944W        W19542   8.615  15.651   2.264 -0.0270  0.0234  0.1009
15945W        W19543   6.490  10.729   8.968 -0.0638  0.1954 -0.2275
15946W        W19544   4.585  13.816   2.963 -0.1290  0.1472 -0.0239
15947W        W19545  14.424  13.269   1.896 -0.0721  0.2145 -0.0085
15948W        W19546   1.874   9.960   0.973 -0.2763  0.0797 -0.0264
15949W        W19547   1.043  12.394  12.174  0.0302 -0.1127  0.1030
15950W        W19548  10.091   9.885   1.591  0.0198  0.0372  0.1442
15951W        W19549   8.412   2.597   8.462 -0.0570  0.0129 -0.0891
15952W        W19550  14.256   1.511  15.889 -0.2418  0.1166 -0.1194
15953W        W19551  14.833   1.726  12.562 -0.2209  0.0096 -0.3665
15954W        W19552  15.349   0.083   6.138  0.1807 -0.0636 -0.0985
15955W        W19553   2.094  10.796  16.362  0.2107  0.0295  0.0526
15956W        W19554  12.603  12.296  16.200  0.0137 -0.0691 -0.0562
15957W        W19555   2.910  16.057  12.735  0.3129 -0.1881  0.2710
15958W        W19556   0.349  15.837   7.862 -0.1781  0.0155 -0.4379
15959W        W19557  12.051   0.228   7.086 -0.0115  0.3229 -0.0493
15960W        W19558   0.345  11.421   0.303 -0.1881  0.0936  0.0973
15961W        W19559   3.997  16.118   4.140 -0.4203  0.3203 -0.1339
15962W        W19560  15.538  11.231  12.938  0.0048 -0.0051 -0.0119
15963W        W19561  10.567  11.043   1.096  0.2086  0.0411  0.0555
15964W        W19562   8.044  11.813   0.403  0.0817 -0.0681 -0.4435
15965W        W19563  16.364  12.986   9.633  0.1414 -0.1977 -0.0499
15966W        W19564   6.750  11.672  12.410 -0.1993 -0.1993 -0.0629
15967W        W19565   6.384  14.069   5.390  0.0294  0.0761 -0.0974
15968W        W19566   5.329   6.655  15.934  0.0766 -0.1797  0.2202
15969W        W19567  10.626   4.702  13.932  0.2752 -0.1240 -0.3233
15970W        W19568  14.872   9.285   1.365 -0.1419 -0.1710 -0.1421
15971W        W19569  15.480   2.767  13.963 -0.2635  0.3363  0.3484
15972W        W19570   1.109  11.472  14.965  0.0840  0.3109  0.0443
15973W        W19571  14.166  14.511  10.136  0.0369  0.1393 -0.0447
15974W        W19572  10.350   1.736   4.950  0.0286 -0.1772 -0.0049
15975W        W19573   9.451   2.770   0.541 -0.1191 -0.2255 -0.3479
15976W        W19574  11.938  13.274   3.837 -0.0898  0.1818  0.1157
15977W        W19575  13.504  13.970  15.825  0.0566  0.0493 -0.2415
15978W        W19576   0.869   6.758  14.714 -0.3067 -0.0282  0.2543
15979W        W19577  13.795  10.517   5.660  0.0498 -0.0923  0.3374
15980W        W19578   3.756  11.223   8.186  0.2397 -0.1238  0.0213
15981W        W19579   5.739   1.410   5.483 -0.1293  0.0503 -0.0421
15982W        W19580  15.485  16.247   1.151 -0.1932  0.0340 -0.1003
15983W        W19581  13.496   0.894   4.026  0.0649  0.0262  0.3299
15984W        W19582  13.190   4.800  14.378 -0.2881  0.2948 -0.1313
15985W        W19583  11.185  13.325  13.692  0.3887 -0.2941 -0.0309
15986W        W19584  14.124  13.851  16.230  0.1762  0.0541 -0.1380
15987W        W19585   8.071   1.863   2.604  0.1096 -0.1147 -0.0857
15988W        W19586   2.560  10.479  13.902 -0.1557 -0.1720 -0.0749
15989W        W19587  14.802  11.966  10.681 -0.2562 -0.0842 -0.1055
15990W        W19588  10.424   5.257   9.458 -0.3520  0.0560  0.0279
15991W        W19589   9.828   5.553  16.024 -0.0569 -0.2876 -0.1606
15992W        W19590   9.990   2.004   9.574  0.1694  0.1905  0.4688
15993W        W19591   9.779   0.989   2.486  0.2667  0.0939 -0.0817
15994W        W19592  15.827   9.367   9.463 -0.1558  0.0064 -0.3813
15995W        W19593   6.363   2.584  15.087  0.0231  0.0316 -0.3728
15996W        W19594   1.409   4.979  16.387 -0.0474  0.0288 -0.0550
15997W        W19595  10.594   1.345   7.739  0.1574 -0.0255 -0.0976
15998W        W19596   6.599   2.979   9.000  0.0023 -0.1327  0.4184
15999W        W19597   2.380  11.389  13.399  0.1020  0.1711 -0.1106
16000W        W19598  14.907   7.011   8.139  0.0063  0.0711  0.0429
16001W        W19599  14.215   8.243   1.864 -0.2129 -0.1870  0.0529
16002W        W19600   0.890   7.596   1.499 -0.1458 -0.0148 -0.3322
16003W        W19601  12.312   8.541  10.118 -0.0371 -0.1611 -0.2130
16004W        W19602  16.098   4.779   1.728 -0.2225  0.1117  0.0988
16005W        W19603   0.002   5.820  13.403 -0.3203 -0.0093 -0.0134
16006W        W19604  11.305  12.296  14.152  0.1924  0.1679 -0.2547
16007W        W19605  15.625  15.337   0.319  0.1296  0.0062 -0.4689
16008W        W19606   7.597   4.760   5.561  0.0992 -0.0110  0.2078
16009W        W19607   2.973  10.900   7.400 -0.3149  0.2735  0.0671
16010W        W19608  10.165   1.888  15.178  0.0044 -0.1687 -0.2237
16011W        W19609   1.629   7.433   2.586 -0.0259 -0.0919 -0.3085
16012W        W19610  13.807  11.430   7.756  0.0159  0.0880  0.1284
16013W        W19611   3.070   9.165   0.974  0.0808  0.4647  0.1210
16014W        W19612  10.693   8.262  12.861  0.0034 -0.0566 -0.0682
16015W        W19613   4.607  14.408   5.643  0.1903  0.0630  0.0803
16016W        W19614   8.816   1.996  11.429  0.3914 -0.1216  0.0001
16017W        W19615  14.515   4.771   6.317 -0.2174 -0.1722  0.0959
16018W        W19616   1.262  10.636   2.743 -0.1458  0.0160 -0.1717
16019W        W19617  11.880  14.722  15.243  0.0113 -0.1715 -0.1221
16020W        W19618   0.699  14.722   6.667  0.1949 -0.2047  0.0321
16021W        W19619  13.533   3.361   0.510 -0.2835  0.0244  0.2302
16022W        W19620   7.320   9.210   1.096 -0.2638  0.2635 -0.3213
16023W        W19621   5.921  14.965   5.273  0.1414 -0.0644 -0.0801
16024W        W19622   9.202  11.215   3.636 -0.1711  0.0097  0.1443
16025W        W19623   1.399   8.418  10.976 -0.0341  0.0972  0.3985
16026W        W19624   3.393   8.168   5.383 -0.1695 -0.2396  0.2485
16027W        W19625   2.341  15.258  12.442  0.1562  0.1564  0.1577
16028W        W19626   7.675   8.312  13.346 -0.0686  0.0546 -0.2229
16029W        W19627   9.106  10.195  10.278  0.0366 -0.0524  0.0221
16030W        W19628   8.167   3.433   7.219  0.1453 -0.4198  0.1813
16031W        W19629   6.559   4.185   5.462  0.0963 -0.0546  0.0098
16032W        W19630   0.462   2.133  14.802 -0.0726  0.0471  0.1757
16033W        W19631  10.005   2.113   7.784 -0.0873 -0.1143  0.4909
16034W        W19632   6.980   6.987   9.704 -0.1636 -0.0109 -0.0977
16035W        W19633   3.750   3.418  13.611 -0.2324 -0.1582  0.1137
16036W        W19634   4.804   1.573  11.470 -0.1127 -0.1762  0.0535
16037W        W19635   7.923   6.173   8.663  0.0441 -0.2602  0.2714
16038W        W19636  14.928   7.495   8.973  0.0508  0.0207 -0.2449
16039W        W19637   0.367  15.355  12.481  0.0515  0.0244  0.0581
16040W        W19638  10.692  14.143   1.483 -0.2497 -0.0095 -0.0660
16041W        W19639  14.747   6.451   5.574 -0.2418 -0.1951  0.0847
16042W        W19640  13.805  12.654   9.729 -0.0033  0.0759 -0.2201
16043W        W19641  14.532   9.904   6.265 -0.2339 -0.0384 -0.2143
16044W        W19642   7.374  15.631   6.567  0.3922  0.0760  0.1474
16045W        W19643  15.445   8.916  12.068  0.1434 -0.4262  0.1690
16046W        W19644   9.210   3.129  14.318  0.0145  0.1624  0.0002
16047W        W19645   5.177   6.259  10.751 -0.4494  0.0064 -0.0025
16048W        W19646  16.364   7.394  10.928 -0.2304 -0.1641 -0.0606
16049W        W19647  10.906   8.264  15.984 -0.1000  0.0502  0.0827
16050W        W19648   8.927  13.001   2.406 -0.0466  0.1237  0.2253
16051W        W19649   5.413  14.644   5.423  0.0470  0.2394  0.0179
16052W        W19650  13.807   6.994   0.837  0.1486  0.1081 -0.1311
16053W        W19651   6.522   4.572  13.450 -0.3309 -0.2575 -0.2422
16054W        W19652   6.193   2.404  14.385 -0.0409 -0.2434 -0.0831
16055W        W19653   0.181   7.612  15.224  0.1942 -0.3610 -0.1603
16056W        W19654   8.248   9.183  13.902  0.3349 -0.1202  0.4265
16057W        W19655   6.477  13.307  13.481  0.0446  0.2799  0.2602
16058W        W19656   0.114   5.952  13.947 -0.0108 -0.1285 -0.1788
16059W        W19657   2.713   7.848   0.930  0.1338 -0.0128  0.1139
16060W        W19658   4.288  14.316  13.380  0.5215  0.0186 -0.0575
16061W        W19659   1.755   3.625  10.915 -0.0245  0.2322  0.2177
16062W        W19660   7.816   4.312  15.496  0.0750 -0.0889  0.0821
16063W        W19661   6.165   7.695   6.856 -0.1008  0.2319 -0.1702
16064W        W19662   2.681   1.798   9.382  0.3439  0.1759  0.1119
16065W        W19663  15.833   1.548   4.438  0.0167 -0.0396  0.1646
16066W        W19664   8.731   7.867  13.215 -0.0852  0.0773  0.2411
16067W        W19665   4.540  14.478  15.160  0.0891  0.0775  0.0778
16068W        W19666   0.861   0.080   9.241 -0.0895  0.1522 -0.0027
16069W        W19667   3.278  11.827   4.089 -0.1154  0.2395 -0.1108
16070W        W19668   0.335   4.869   4.219 -0.1368  0.0690 -0.1867
16071W        W19669  15.561  12.582   3.686 -0.1980  0.1078 -0.1125
16072W        W19670   7.793   5.477  11.057 -0.3457  0.2969 -0.0448
16073W        W19671   5.285  14.744   7.601 -0.1791  0.0186  0.1383
16074W        W19672   5.621  12.161   6.790 -0.0644  0.0110  0.0388
16075W        W19673   0.749   9.084   4.536  0.2408 -0.0793  0.2088
16076W        W19674  11.728   6.790  15.067  0.1904  0.1862 -0.1649
16077W        W19675   4.982   7.074  12.447 -0.1720  0.2292 -0.2151
16078W        W19676   0.466   2.713   2.878  0.1135 -0.0099 -0.2166
16079W        W19677  10.433  10.947  11.247 -0.1986 -0.1482 -0.0005
16080W        W19678   8.316  11.397  13.986 -0.1677  0.2062 -0.0342
16081W        W19679   1.253  13.372  14.936  0.1437  0.0585 -0.0361
16082W        W19680   2.496  13.293   8.782  0.3752 -0.2940  0.0502
16083W        W19681   9.075   2.711  15.231  0.0791 -0.1328 -0.3977
16084W        W19682  13.559   6.650   4.534 -0.0561  0.1981 -0.2261
16085W        W19683   3.972   8.307  16.278  0.0155  0.2259 -0.0244
16086W        W19684   9.406  11.837   6.754  0.2655 -0.3061 -0.0882
16087W        W19685   8.751   7.647  12.779 -0.3993 -0.2029  0.1095
16088W        W19686  15.952   1.366  14.728 -0.1673  0.3647  0.0048
16089W        W19687  15.448   3.997   7.000  0.1037 -0.2812  0.1256
16090W        W19688   1.448   3.070   0.119  0.1666  0.1647 -0.0885
16091W        W19689   7.063   6.731   1.188  0.0393 -0.0914  0.0052
16092W        W19690   1.882   2.633  14.803 -0.1657  0.0694  0.2010
16093W        W19691   3.790  12.336  15.491 -0.0122 -0.1594 -0.4036
16094W        W19692  14.524  15.779  12.200 -0.1547  0.1238 -0.1045
16095W        W19693   7.230   9.249   4.655  0.1893  0.2819 -0.1280
16096W        W19694   0.098   8.891   7.048 -0.1613 -0.0038  0.1232
16097W        W19695   4.439   2.058   3.753  0.0010 -0.0759 -0.0078
16098W        W19696   7.312  14.892  14.356 -0.0993  0.0644 -0.0255
16099W        W19697   7.058  14.049   4.274 -0.0375 -0.0508  0.0241
16100W        W19698  14.883   0.432   5.386  0.1486  0.1725  0.0804
16101W        W19699  10.410  16.340  11.028  0.1347 -0.0202  0.2238
16102W        W19700  16.215  14.650   3.619 -0.0465  0.2003 -0.3154
16103W        W19701   0.229   9.301   0.719 -0.3193 -0.0650  0.1096
16104W        W19702   5.974  10.949   6.433 -0.2103  0.1600  0.2363
16105W        W19703   6.091   0.384   8.152 -0.1623 -0.1982 -0.0348
16106W        W19704   6.109   2.887   3.675 -0.5783 -0.1125 -0.2905
16107W        W19705  14.378   2.633  11.234 -0.0721 -0.2284  0.0644
16108W        W19706  13.273  10.273   6.416  0.0494 -0.1212 -0.1460
16109W        W19707   0.545   0.518   4.512 -0.2259 -0.0354 -0.4714
16110W        W19708   3.589  12.719   1.333 -0.3584  0.0072  0.0329
16111W        W19709  11.999  14.592  12.955 -0.1945  0.2173  0.0128
16112W        W19710   6.076  14.089  10.347  0.1007 -0.0317 -0.0454
16113W        W19711   4.503  15.203  10.014  0.0028  0.3075 -0.0457
16114W        W19712   0.063   0.772  14.047  0.0326 -0.0768  0.0112
16115W        W19713   8.806  13.125  15.845  0.2262  0.1506 -0.3512
16116W        W19714   3.944  10.080   2.060  0.2922 -0.0268  0.0476
16117W        W19715  13.602   6.199  10.564 -0.2759  0.1002  0.0084
16118W        W19716  13.704   0.963  14.164 -0.0847 -0.1599  0.0427
16119W        W19717   7.082   6.796  15.232  0.0553  0.0514 -0.3417
16120W        W19718  12.392   2.905   0.227  0.1868 -0.1502 -0.1700
16121W        W19719  11.439  15.947  11.974 -0.0337 -0.0389 -0.4427
16122W        W19720   7.231   7.970  15.109 -0.0012 -0.0341  0.0073
16123W        W19721   9.017   2.935   4.289  0.1960 -0.0069  0.1326
16124W        W19722   4.603   4.029   3.395 -0.2540  0.0832  0.1903
16125W        W19723  12.968   2.119  10.958  0.0522 -0.0056  0.2504
16126W        W19724   3.649   6.947   6.682  0.1703  0.1468 -0.0495
16127W        W19725  10.186  16.284  14.076 -0.0182 -0.0248 -0.1384
16128W        W19726   6.202   6.693  11.561  0.2389 -0.0727 -0.1093
16129W        W19727   5.499   0.690   0.921 -0.2595  0.0308  0.2510
16130W        W19728   5.271   3.040   7.846  0.1112  0.0574 -0.1181
16131W        W19729   5.271   2.472  12.400  0.1816  0.1161 -0.0968
16132W        W19730   8.017   4.626  13.537  0.1052  0.0549  0.2131
16133W        W19731  12.886  12.687   7.807  0.1515 -0.4135 -0.4139
16134W        W19732   1.545  13.550   3.982 -0.0141 -0.1679  0.1564
16135W        W19733  14.310  15.042   8.870 -0.0461 -0.0967  0.2378
16136W        W19734   1.714  13.322   2.608  0.0428  0.1397  0.1294
16137W        W19735   7.665  14.574   6.479 -0.1384 -0.2934 -0.0968
16138W        W19736  11.554  10.237   5.856 -0.3571 -0.0056  0.0325
16139W        W19737   7.806  16.236   9.544  0.2262  0.0634 -0.0464
16140W        W19738   3.783  12.533   8.634 -0.0886 -0.2452 -0.0255
16141W        W19739   8.366   5.760   8.645 -0.4059  0.0610 -0.1238
16142W        W19740   6.771   3.718  12.626 -0.0422  0.1845 -0.0175
16143W        W19741  10.115   0.834  15.992 -0.1351  0.2847  0.2245
16144W        W19742  12.846   4.691   9.160  0.2010  0.0166  0.1119
16145W        W19743   2.687   1.698   0.795  0.3173  0.0388 -0.2197
16146W        W19744   4.746   4.098  10.940 -0.1036 -0.2290 -0.0521
16147W        W19745  11.190  15.359   0.569  0.1177  0.4043 -0.1509
16148W        W19746   8.434   8.208  11.325  0.3941 -0.1178 -0.2113
16149W        W19747   5.183  12.731   4.180  0.1552 -0.1233 -0.3113
16150W        W19748   0.298  14.720   6.349  0.0708 -0.0132  0.2620
16151W        W19749   1.110   9.556  12.411 -0.0759  0.1224 -0.2704
16152W        W19750  13.193   1.625   1.917 -0.0502  0.0690 -0.1528
16153W        W19751   7.474  13.626   7.280 -0.3627  0.0377 -0.2523
16154W        W19752  14.029  16.160   1.881 -0.4688 -0.1753  0.1410
16155W        W19753   9.322   7.527   1.514 -0.0457  0.1987  0.2824
16156W        W19754   4.230   3.861   3.683  0.0716 -0.2807 -0.0028
16157W        W19755  10.350   7.507   5.151 -0.1590 -0.2096  0.1604
16158W        W19756   4.552  15.222  15.520 -0.2037 -0.0227  0.0675
16159W        W19757   2.339   8.565   7.309  0.1701  0.0137  0.1742
16160W        W19758   8.788   5.855   7.030  0.1729  0.1363 -0.1378
16161W        W19759  15.189   6.011  14.844 -0.1403 -0.0270  0.0204
16162W        W19760  12.993  10.894   6.809  0.0008  0.4707  0.3297
16163W        W19761   7.450  10.552  15.685 -0.0156  0.1042 -0.0799
16164W        W19762   9.312  13.062  15.779  0.0075 -0.0358 -0.2194
16165W        W19763   9.897   6.166  14.954  0.0242 -0.0141 -0.0951
16166W        W19764   0.563  14.977  10.652  0.0955  0.0073  0.1118
16167W        W19765   5.340   9.803   7.887  0.0941 -0.3317 -0.0120
16168W        W19766   4.869   1.643  14.183  0.1095  0.4385 -0.1548
16169W        W19767  12.267  11.358   0.986  0.2140 -0.2612 -0.1120
16170W        W19768   8.881   2.309   7.524 -0.0531 -0.1951  0.0796
16171W        W19769   4.422  13.068   7.566  0.1413  0.1509 -0.1041
16172W        W19770  12.249  10.831   1.020  0.1463  0.0493  0.0166
16173W        W19771  12.664   0.087   1.007  0.4431 -0.1794  0.2672
16174W        W19772   3.841   5.362   7.964 -0.1436 -0.1016  0.1155
16175W        W19773   2.742  10.350  11.171  0.0750  0.2279  0.0292
16176W        W19774  11.176   6.074  10.522  0.1302  0.2083 -0.0459
16177W        W19775  14.431   1.012   1.765  0.0164 -0.0132  0.0463
16178W        W19776   3.927  14.978   8.060  0.1389  0.0368  0.1035
16179W        W19777   2.613   7.260  12.402  0.1841 -0.1365  0.3520
16180W        W19778  12.275  13.499  11.842  0.2734 -0.2300  0.0543
16181W        W19779  15.691   6.090  14.101 -0.2271 -0.1138  0.0317
16182W        W19780  11.433   6.482   2.196 -0.1609 -0.1672  0.3069
16183W        W19781   2.062  10.601   8.627  0.0162 -0.0912  0.1038
16184W        W19782  13.987   7.273  14.625 -0.0804  0.0886 -0.1672
16185W        W19783   3.628  16.224   3.381  0.3349 -0.2092  0.3562
16186W        W19784   9.392   8.258   9.326 -0.1688  0.2097 -0.2642
16187W        W19785   1.688  13.795   5.463 -0.0737  0.1632 -0.0240
16188W        W19786   0.478   0.137   3.338  0.4089 -0.2577 -0.0369
16189W        W19787  10.125   7.397   2.137 -0.1422  0.1188 -0.1852
16190W        W19788  12.514   8.053   6.050 -0.1507  0.0273 -0.0063
16191W        W19789  14.423  12.350   7.998  0.2115 -0.0106  0.1052
16192W        W19790  13.690   0.244  16.363 -0.1117  0.1732  0.0976
16193W        W19791   9.563  11.223  13.412 -0.1693 -0.0651 -0.0935
16194W        W19792   6.353  15.314  15.714 -0.4313  0.0410  0.4944
16195W        W19793  13.147  13.220  10.773  0.1852  0.1704  0.1161
16196W        W19794  11.986   1.020   9.789  0.0823 -0.2651  0.0721
16197W        W19795   6.626   7.003  12.912 -0.0640 -0.0469  0.0610
16198W        W19796   1.252   4.956   0.476  0.3325  0.0391 -0.1808
16199W        W19797  10.745   1.544   4.025 -0.1362 -0.3303  0.0974
16200W        W19798   7.632   7.493   5.655  0.2371 -0.0376 -0.1979
16201W        W19799  15.029  12.062   5.818 -0.1488 -0.1880 -0.1818
16202W        W19800  15.936  15.777   0.397  0.2117 -0.1425  0.0072
16203W        W19801  10.791   0.571  11.734  0.1030  0.0545 -0.0583
16204W        W19802   6.920  10.189   9.731  0.3584  0.0840 -0.1594
16205W        W19803  15.590   9.841  13.724  0.1678  0.1170 -0.2147
16206W        W19804   8.494   3.799   5.133 -0.1279 -0.1578 -0.2982
16207W        W19805   2.456   7.463  13.653  0.1215  0.2361 -0.1155
16208W        W19806   2.326   2.422   1.114  0.1049  0.0860  0.0128
16209W        W19807   5.110   5.117  15.625 -0.0244 -0.0240  0.2115
16210W        W19808  16.173  12.244   1.924 -0.0192  0.2167  0.1090
16211W        W19809   1.582  15.817  15.452 -0.0218 -0.2450 -0.0007
16212W        W19810   8.746   8.008   0.328 -0.1070 -0.0523  0.0412
16213W        W19811   4.830   3.368   0.068  0.0327  0.0072 -0.2504
16214W        W19812   4.076  11.059  10.031 -0.0700 -0.2263 -0.3488
16215W        W19813   5.282   6.651  13.271  0.0785 -0.1196 -0.2651
16216W        W19814  12.613   5.883   2.203  0.1500  0.3404  0.3174
16217W        W19815  12.211  12.847   4.018  0.0036  0.5020 -0.1442
16218W        W19816   7.438   2.693   1.440 -0.0693 -0.2231 -0.2893
16219W        W19817   6.824   7.827   6.950 -0.2176 -0.0587 -0.3737
16220W        W19818   1.027   7.078  11.599 -0.1209 -0.0743  0.0986
16221W        W19819  10.794  12.303   8.213 -0.1060 -0.1604 -0.1452
16222W        W19820  10.463   0.410   8.068 -0.1504  0.3137  0.2224
16223W        W19821   9.690   1.411  14.442 -0.1909  0.1183  0.0799
16224W        W19822   1.144  16.237   3.963  0.1730  0.0580 -0.0411
16225W        W19823  11.830   8.991   1.914  0.0970  0.0151 -0.0627
16226W        W19824   7.397   7.165   2.086  0.2785  0.0462 -0.1102
16227W        W19825  12.411   3.570   5.343 -0.1568 -0.0781 -0.1221
16228W        W19826  11.146  10.344   2.792 -0.2375 -0.0029 -0.1666
16229W        W19827   0.322   2.312   5.694 -0.1315 -0.2656 -0.0527
16230W        W19828   9.731  12.378  11.475 -0.0882  0.4619 -0.0180
16231W        W19829   0.244  13.849   5.775 -0.0749  0.1424  0.0591
16232W        W19830  11.118  12.994   6.723  0.0969 -0.2190 -0.0527
16233W        W19831  10.363  12.200   2.497  0.0530 -0.0276  0.0812
16234W        W19832   6.765  14.943  15.122 -0.0804 -0.0599  0.0760
16235W        W19833  16.036   7.822  13.155  0.1007  0.0632  0.2430
16236W        W19834   1.595   0.879  13.804  0.0933 -0.0378  0.2003
16237W        W19835   7.660   1.935   2.978 -0.2820  0.0635 -0.1992
16238W        W19836   1.968   4.968   9.311  0.2334 -0.1481  0.3162
16239W        W19837   5.274  13.311  11.905  0.0924 -0.2968 -0.0827
16240W        W19838   0.349   8.032   2.173 -0.1241  0.1865  0.0655
16241W        W19839  10.920  14.345  12.564 -0.3246  0.0686 -0.0955
16242W        W19840  13.702   6.870   9.115 -0.1653 -0.1753  0.0889
16243W        W19841  14.162   6.708   8.869 -0.3468  0.0322  0.0086
16244W        W19842   1.804   8.818   1.736 -0.1430 -0.2260  0.1408
16245W        W19843  14.175  14.757   2.562  0.1470  0.2015  0.0499
16246W        W19844   9.115  14.093   0.387 -0.1185  0.0337 -0.1174
16247W        W19845   3.541  15.445  11.481  0.0336 -0.1413  0.0934
16248W        W19846   5.593  11.529  11.604  0.0939  0.0911  0.0252
16249W        W19847   4.976   6.473   9.650  0.1961 -0.0877  0.0281
16250W        W19848  11.798  14.585  11.077  0.0317 -0.0003 -0.0521
16251W        W19849  12.335   7.431  15.478 -0.0838  0.0146  0.4724
16252W        W19850   7.781   6.508   9.611 -0.0950  0.1763 -0.0485
16253W        W19851  13.659   8.096   2.741 -0.0955  0.3129  0.2774
16254W        W19852   6.952  15.488   7.278  0.1948  0.2206  0.0552
16255W        W19853   5.446  12.934   9.525 -0.1105  0.1061 -0.1612
16256W        W19854   4.942   6.132   8.777 -0.0479  0.0613 -0.2049
16257W        W19855   0.940  16.048  10.017  0.0036 -0.0924 -0.0839
16258W        W19856   8.172  13.078  13.599  0.0167  0.2392 -0.1616
16259W        W19857   5.604  16.104  14.611  0.1417  0.0884  0.0299
16260W        W19858  12.046   0.378  11.111 -0.0642  0.0069  0.0078
16261W        W19859  15.167  14.262   4.019  0.1624  0.1987 -0.0098
16262W        W19860  16.237   3.252  12.189  0.2957 -0.3473 -0.0485
16263W        W19861   4.648  15.744   4.956  0.1234  0.1252  0.0596
16264W        W19862   2.065   0.103  11.228  0.1235  0.3055 -0.3823
16265W        W19863   4.937   1.665   0.267  0.2169 -0.0520 -0.0535
16266W        W19864  14.831   1.710   8.794 -0.0162 -0.1590  0.1753
16267W        W19865  10.578  12.800   5.873  0.0580  0.1683 -0.0615
16268W        W19866   9.403   3.372   1.133  0.6361  0.0478  0.2787
16269W        W19867  11.395   3.800  12.230 -0.0184  0.1214  0.2798
16270W        W19868   4.957  12.965  11.041 -0.0625 -0.0028  0.1552
16271W        W19869   3.167   8.684   6.138  0.3279  0.0137  0.2623
16272W        W19870  10.924  11.093   8.079  0.0161 -0.0018 -0.0492
16273W        W19871   9.759   8.084  14.257  0.4060 -0.0446 -0.1365
16274W        W19872  13.221   3.358  10.518 -0.0738  0.1051 -0.0710
16275W        W19873   8.532  10.020  11.912 -0.1973  0.3307 -0.3009
16276W        W19874  13.663   5.675  10.520 -0.1043 -0.1282  0.0877
16277W        W19875   4.265  16.354   4.993 -0.1316  0.4265 -0.1861
16278W        W19876   6.525   3.782   1.241 -0.0587 -0.1609 -0.1825
16279W        W19877  16.179  11.440   1.159 -0.0610  0.0176  0.1873
16280W        W19878   5.415   4.804   9.281  0.1316 -0.0444  0.1615
16281W        W19879   8.738   1.094  13.570 -0.2059  0.1048  0.0829
16282W        W19880  14.002   6.216   9.630 -0.1707  0.0497 -0.2690
16283W        W19881  13.574  14.326   6.747 -0.0848 -0.1496 -0.1812
16284W        W19882   9.089   6.378   2.143  0.0237  0.2678 -0.0529
16285W        W19883   1.560  15.022  15.297  0.2489 -0.0847 -0.0260
16286W        W19884   1.415  12.554  14.533 -0.4347 -0.0531 -0.0459
16287W        W19885   4.117   1.842   0.140 -0.1294  0.0412  0.0430
16288W        W19886   1.927   7.570   6.881 -0.1829  0.2600 -0.0453
16289W        W19887   7.777  16.378   4.830  0.1414  0.0760  0.0722
16290W        W19888   1.462   8.921   5.611 -0.0729  0.3385 -0.1456
16291W        W19889  10.830   9.188   4.644  0.3371  0.0471 -0.1515
16292W        W19890  10.153  11.863   1.720 -0.0162  0.1594 -0.1234
16293W        W19891  10.361   2.796  13.625  0.0462  0.1669  0.1317
16294W        W19892   5.051   2.247   5.301  0.1629  0.1651  0.2632
16295W        W19893  14.193  15.779   5.081  0.0324  0.1478  0.0368
16296W        W19894  11.558  11.465   3.504  0.5561 -0.2973  0.0877
16297W        W19895   7.801   3.634   4.558 -0.1330 -0.2058  0.1576
16298W        W19896   1.412   6.571   6.140  0.0032  0.1953  0.2447
16299W        W19897  12.929   4.406   9.993  0.0454  0.1939  0.0053
16300W        W19898   0.507  10.474   8.385 -0.3154 -0.1259 -0.1968
16301W        W19899  14.921   2.097   8.357 -0.1160 -0.0651 -0.2331
16302W        W19900  11.441  12.593   6.780 -0.0157 -0.0569  0.1076
16303W        W19901  15.842   9.971   2.636 -0.0562 -0.0034  0.5258
16304W        W19902  10.967   0.508  14.174 -0.3314  0.1206 -0.1409
16305W        W19903  12.857   5.008   8.567 -0.5057  0.0845 -0.1524
16306W        W19904   9.129   0.660  13.124  0.0072  0.3392 -0.0367
16307W        W19905   7.020   2.866   6.241  0.1379  0.1560  0.0298
16308W        W19906  12.571  15.795  11.192  0.0715 -0.0706 -0.2038
16309W        W19907   0.363   8.440   4.964 -0.1004 -0.0402 -0.0607
16310W        W19908   9.329   3.956  15.487  0.1755 -0.0581  0.0259
16311W        W19909   8.004   9.611   6.957 -0.0174  0.2296 -0.2354
16312W        W19910   4.666   6.108  11.598 -0.0917  0.3655 -0.0901
16313W        W19911   3.363   6.236   3.528  0.0452  0.2934  0.1979
16314W        W19912   3.358  10.709   5.773 -0.0809 -0.0953  0.1462
16315W        W19913   8.925  10.657  12.329  0.2991  0.0758  0.0013
16316W        W19914   8.397   3.381   2.766 -0.1746  0.1341  0.0147
16317W        W19915   8.608   4.178   8.607 -0.0189  0.1816  0.1607
16318W        W19916   9.970   8.435   4.340  0.0238 -0.0579  0.4166
16319W        W19917  12.095  10.293   7.828  0.0225  0.0779  0.0345
16320W        W19918   6.871   2.601  14.928 -0.1050  0.1979  0.0955
16321W        W19919   7.901  14.570  10.534  0.0306  0.1035 -0.1007
16322W        W19920   5.562   8.311   1.344  0.0150  0.1908 -0.2421
16323W        W19921   5.977   9.479  15.482 -0.3960 -0.2491  0.2462
16324W        W19922  14.438   4.147   7.174  0.0726 -0.1019  0.2801
16325W        W19923  16.022   4.312   5.443 -0.0640 -0.3434 -0.2928
16326W        W19924   1.057   5.509   7.485 -0.0452  0.1378  0.4389
16327W        W19925  10.649   3.657   1.693 -0.0236 -0.7140  0.2253
16328W        W19926   6.718   5.204  12.730 -0.0840  0.0961 -0.3421
16329W        W19927   4.185  14.441  11.227  0.0126 -0.2693 -0.2311
16330W        W19928   3.194   0.062   3.889  0.0339  0.2452  0.0560
16331W        W19929  15.509  12.107   8.564 -0.0686  0.0199  0.0550
16332W        W19930   9.304   7.577   0.416  0.1945 -0.2783 -0.0582
16333W        W19931   0.801   1.547  11.376  0.0762 -0.0886 -0.0044
16334W        W19932   4.638  11.863   4.670 -0.1081  0.0428  0.0398
16335W        W19933   9.435   5.664   0.470 -0.0320 -0.0828 -0.2975
16336W        W19934  11.135   3.154  15.372 -0.1497 -0.0550  0.3674
16337W        W19935  10.359   0.111  12.894 -0.2105  0.1121  0.2035
16338W        W19936   9.031  12.709   9.914 -0.1734  0.0912  0.1613
16339W        W19937  11.097  13.093  14.163  0.0787 -0.2226  0.2753
16340W        W19938   3.926   0.648   7.185  0.0264  0.2172  0.1659
16341W        W19939   2.200  15.219   6.618  0.0196 -0.1103 -0.4038
16342W        W19940   4.977  12.153   5.753  0.0496  0.2962 -0.1023
16343W        W19941   3.391   2.632   6.506 -0.1584  0.0376 -0.2098
16344W        W19942  13.428  10.453  12.161 -0.0671  0.1705  0.0653
16345W        W19943  12.059   4.388   9.394 -0.0831 -0.0442 -0.3001
16346W        W19944   0.415  14.429   9.868  0.2231  0.2966 -0.2061
16347W        W19945  10.453  15.655  14.359  0.0615  0.2024  0.1736
16348W        W19946   9.751   2.436   0.918  0.0097 -0.0690  0.0940
16349W        W19947   9.778   2.965   3.766  0.1313  0.1204 -0.3336
16350W        W19948   8.891   4.785  13.712  0.3713 -0.1018 -0.2328
16351W        W19949  10.240   5.749   7.346 -0.1799 -0.1188 -0.0558
16352W        W19950  14.061   3.990   2.295  0.0269 -0.1861 -0.2234
16353W        W19951  10.922   4.067  15.735 -0.2668  0.1012  0.2202
16354W        W19952   6.800  10.308   3.404  0.1876  0.1795 -0.1499
16355W        W19953  15.344   2.376   7.594  0.0187  0.0388 -0.1503
16356W        W19954  16.046   2.297  15.742 -0.0356  0.2003  0.0546
16357W        W19955  14.987   5.956   2.013  0.2242 -0.3506  0.1248
16358W        W19956   0.118   4.131   6.854  0.2439 -0.1253 -0.0937
16359W        W19957   6.780   9.439  13.806  0.4333  0.1531 -0.0953
16360W        W19958  11.994  11.355  12.033 -0.3001  0.4968  0.4195
16361W        W19959  12.310  15.778  15.806  0.0904 -0.0815  0.0218
16362W        W19960   0.900  13.832  11.290 -0.2037  0.0451  0.0297
16363W        W19961   1.946  10.740  11.333 -0.0755 -0.1792  0.1266
16364W        W19962  13.364  14.451  15.497 -0.2073  0.1662 -0.3057
16365W        W19963  11.154   6.848  13.998 -0.1141  0.3679 -0.2252
16366W        W19964  13.623  14.754   9.188 -0.1903  0.0536  0.1754
16367W        W19965   3.727  14.809   9.405  0.0004 -0.3262 -0.0499
16368W        W19966  15.100   4.303   5.612 -0.4012  0.1769 -0.1181
16369W        W19967   1.611  11.482   8.551 -0.3425  0.0419 -0.0692
16370W        W19968   3.134   5.902   5.887 -0.0486 -0.2233  0.2467
16371W        W19969   6.217  15.981   0.584  0.1026  0.1819  0.2225
16372W        W19970   7.144  13.845   1.435  0.1840  0.0680 -0.0547
16373W        W19971   5.564  13.169   8.470  0.2193  0.3401  0.1360
16374W        W19972  11.136   2.173   1.851  0.1550 -0.0045 -0.1397
16375W        W19973   1.339   2.237   5.641  0.3040 -0.0119  0.3347
16376W        W19974   3.673   4.939   0.330  0.2642 -0.1321  0.2872
16377W        W19975  10.110  15.561   2.430  0.0851 -0.1560 -0.1637
16378W        W19976   0.663   5.409  15.786  0.0525  0.1719 -0.1090
16379W        W19977  15.963   7.319   9.667  0.0569 -0.1100  0.2076
16380W        W19978   7.692   0.464   7.239  0.0800  0.4752  0.0008
16381W        W19979   3.064   2.902  15.709  0.1993  0.1621 -0.0396
16382W        W19980   6.713  10.856  16.231  0.1534 -0.0694  0.0016
16383W        W19981   0.260  12.966  12.931 -0.0683 -0.1756 -0.0756
16384W        W19982   9.734  14.560   5.362  0.1604  0.0439 -0.5125
16385W        W19983   1.112   2.522  11.785 -0.3420  0.3395  0.3171
16386W        W19984   0.450   2.544   8.248 -0.0065 -0.0069 -0.2058
16387W        W19985   3.900  16.352  12.826 -0.0603  0.1294  0.0933
16388W        W19986   0.740   7.700   7.603  0.0851 -0.2601 -0.0179
16389W        W19987  13.729   3.917  11.070 -0.1800  0.1175  0.4130
16390W        W19988   2.317   6.694   9.025  0.1641  0.0139  0.0009
16391W        W19989  11.280  14.475   9.552  0.4111 -0.3392 -0.0912
16392W        W19990   7.278   6.600   8.301 -0.3759  0.1314 -0.2524
16393W        W19991   0.168   8.376  16.093  0.0175 -0.1581  0.4606
16394W        W19992   7.067   3.169   2.216 -0.1560  0.0083  0.0329
16395W        W19993   1.861   0.335   8.302 -0.3241 -0.0459  0.0224
16396W        W19994   1.558  13.627   4.584 -0.0748  0.4632  0.0728
16397W        W19995   6.222   7.158  12.591  0.2141 -0.1514 -0.0439
16398W        W19996   3.724   4.132   7.197  0.2672 -0.1103  0.1277
16399W        W19997   9.130  11.937   8.604 -0.0376 -0.1838 -0.0579
16400W        W19998   6.251   0.251   1.887 -0.1607 -0.1416  0.0193
16401W        W19999  12.062  12.131   5.160 -0.2889 -0.2504 -0.1332
16402W        W20000   3.064   4.691  12.203 -0.1383 -0.1095  0.1054
16403W        W20001   8.705  11.321   2.888 -0.0982 -0.0293 -0.1436
16404W        W20002   0.648   2.472   6.163 -0.4393 -0.0480 -0.2029
16405W        W20003   2.484  10.794   2.563 -0.4557 -0.2780 -0.1795
16406W        W20004  10.984   4.966   2.064  0.1330 -0.0993 -0.1414
16407W        W20005  13.322  16.000   8.956 -0.0021 -0.2556  0.0761
16408W        W20006   0.412   0.595   7.800 -0.0532 -0.2057  0.3591
16409W        W20007  15.801  15.681   2.310 -0.2286  0.1724  0.0100
16410W        W20008  14.515  11.576   8.888 -0.2780  0.0479  0.1798
16411W        W20009  15.862   6.045   1.172 -0.2786  0.1554 -0.2941
16412W        W20010   5.532   1.654  12.479  0.3684 -0.1503 -0.0866
16413W        W20011   8.817   4.469  15.029 -0.0283 -0.2272  0.0651
16414W        W20012   8.961  16.282   6.077 -0.1327  0.3212 -0.0529
16415W        W20013   0.448   6.494  11.197  0.1963 -0.1672  0.2337
16416W        W20014  13.757   5.451   3.856 -0.0841 -0.1983  0.0863
16417W        W20015   6.298   0.216  15.254  0.0250 -0.3980  0.0144
16418W        W20016   8.826   1.631   0.912  0.0501  0.0484  0.1236
16419W        W20017   6.591   5.006  15.450 -0.0228  0.0178 -0.1115
16420W        W20018  12.480  10.342  10.525  0.0203  0.0943  0.0496
16421W        W20019  12.830   3.345   5.692 -0.2838  0.0211 -0.3627
16422W        W20020  11.680   9.640  12.196 -0.0068  0.5639  0.2177
16423W        W20021   7.853  11.629  12.210  0.2418 -0.0081 -0.0487
16424W        W20022   3.598   8.638   8.540  0.0199  0.1161 -0.0094
16425W        W20023  12.041   4.615   8.983 -0.1507 -0.0619  0.0910
16426W        W20024   3.544  10.928  11.729  0.1238 -0.0212 -0.2361
16427W        W20025  14.943  16.326   7.863 -0.3538 -0.2998 -0.1684
16428W        W20026   5.857  14.449   0.249 -0.0377  0.3161 -0.0871
16429W        W20027   5.667  11.586   2.757 -0.1278 -0.1576 -0.0554
16430W        W20028   1.275   1.173   7.787 -0.2643 -0.0604  0.5069
16431W        W20029   1.269   7.914   7.631 -0.1468 -0.2783 -0.0342
16432W        W20030  11.209  10.892  15.108 -0.5164  0.1066  0.0209
16433W        W20031   6.505   8.208   9.075  0.0637  0.2428  0.1220
16434W        W20032  14.297   8.030  12.874  0.2734  0.0998 -0.2223
16435W        W20033   2.473   1.682   4.835  0.1511  0.0315  0.0143
16436W        W20034  14.455   0.200  13.049 -0.2184 -0.2703 -0.2034
16437W        W20035  11.418   3.824   0.784 -0.1319 -0.1862 -0.1936
16438W        W20036   8.676   0.180   6.853  0.0637 -0.1618 -0.1041
16439W        W20037   2.093   4.508  15.898 -0.0235 -0.4021 -0.0096
16440W        W20038  13.949  12.336  14.520 -0.0239  0.1021 -0.0708
16441W        W20039   5.848   7.097   5.769 -0.1783 -0.2297 -0.0497
16442W        W20040   0.111   3.143  12.669 -0.1401  0.0680  0.1100
16443W        W20041   7.637  14.000   3.431  0.0125 -0.3595 -0.1632
16444W        W20042  10.459  10.564  14.461  0.0583 -0.1368 -0.1439
16445W        W20043   5.762  10.267  11.644 -0.0538 -0.0112 -0.1035
16446W        W20044   7.565  15.479  11.199 -0.1004 -0.2214 -0.1565
16447W        W20045  12.122  12.782  15.275 -0.0899  0.2667 -0.2306
16448W        W20046   1.740   4.240   1.593  0.3305 -0.0211  0.0121
16449W        W20047   9.066   2.107  14.308 -0.4221 -0.0623  0.0211
16450W        W20048   0.759   1.334   5.052 -0.1936 -0.1732 -0.0656
16451W        W20049   9.278  16.344   8.837  0.0223 -0.1894  0.0151
16452W        W20050  14.997   5.726  11.398  0.1986  0.0963  0.3234
16453W        W20051  10.915   4.999  15.090 -0.0912  0.0866  0.0205
16454W        W20052   3.772   7.570   2.227 -0.0950  0.3055  0.2764
16455W        W20053   3.620   8.514   5.755  0.0527 -0.0979 -0.2445
16456W        W20054   5.452   1.363   2.969  0.1229  0.0577  0.0485
16457W        W20055   0.979  12.838   7.044  0.1968  0.1714 -0.2734
16458W        W20056   5.994  12.587   3.635 -0.0162  0.1571 -0.1330
16459W        W20057   7.743   3.877   8.446  0.1591 -0.1008  0.2744
16460W        W20058   2.776   5.017   0.631  0.0846  0.0738 -0.0312
16461W        W20059  12.631   7.444   1.263  0.1096 -0.0004 -0.0863
16462W        W20060  12.053  10.872   0.497  0.3037 -0.0779  0.0074
16463W        W20061   0.162  13.836   0.002 -0.0039  0.0776 -0.2352
16464W        W20062  11.988  11.643  10.583 -0.0192 -0.0082 -0.2623
16465W        W20063   2.203  14.689   1.303  0.0143 -0.1959 -0.4662
16466W        W20064   4.772   0.322  10.749 -0.2719 -0.0340 -0.0128
16467W        W20065   3.226   3.802   7.960 -0.0492 -0.0523  0.0823
16468W        W20066  11.310  12.079  10.437  0.1566 -0.0547  0.1031
16469W        W20067  14.504   7.741   6.246  0.0014 -0.0216 -0.1695
16470W        W20068  11.195  10.491   9.307  0.1759  0.0948 -0.3406
16471W        W20069   6.399  13.381  16.050  0.3147  0.0915  0.1078
16472W        W20070  12.331  11.503  12.784 -0.3079 -0.3654  0.1125
16473W        W20071   5.278  15.700   3.903  0.2183  0.0580  0.0508
16474W        W20072   9.290  14.366  16.337 -0.0634 -0.2469  0.0239
16475W        W20073   8.330   0.264  16.184 -0.0555 -0.1805 -0.2045
16476W        W20074   8.431  12.532   4.563 -0.3364  0.0390 -0.0277
16477W        W20075  13.506   6.463   5.426 -0.1543  0.0940  0.1639
16478W        W20076  15.977   3.984   7.248 -0.0005  0.1037 -0.0872
16479W        W20077  15.949  10.423  14.331 -0.2212  0.0751  0.0616
16480W        W20078   2.731   2.502   5.419 -0.0090 -0.1043 -0.1546
16481W        W20079   1.007   0.915   0.182 -0.0871  0.4212  0.1778
16482W        W20080   9.694   0.704  13.254 -0.0232  0.0467  0.2217
16483W        W20081  11.044   0.911   5.546  0.1822 -0.2676  0.2713
16484W        W20082   8.362  16.023   5.562  0.2062  0.1558 -0.0586
16485W        W20083   0.951  14.365   1.322 -0.2638 -0.1283 -0.0803
16486W        W20084  16.260  13.328   1.619  0.0762  0.1417 -0.1912
16487W        W20085   1.584   5.860  11.098 -0.1931  0.2913  0.3940
16488W        W20086  11.043   8.403   8.336 -0.1194 -0.2284  0.0600
16489W        W20087   9.412  10.181   5.906 -0.2038  0.3727 -0.0465
16490W        W20088   3.313   2.817   4.079 -0.3752 -0.1718 -0.1981
16491W        W20089   1.702   5.346  12.313  0.1419 -0.0016  0.0064
16492W        W20090  10.289   7.653   3.151  0.2194  0.2514  0.4688
16493W        W20091  10.498  10.266   6.653  0.0373 -0.3339  0.3039
16494W        W20092   4.534  15.307   1.575  0.0899 -0.0108  0.3233
16495W        W20093   2.403   0.718  14.086  0.0000  0.3133 -0.2170
16496W        W20094   4.365  14.990   4.596 -0.0092  0.3042  0.0014
16497W        W20095  10.447   2.487   8.908  0.0441  0.1783  0.2839
16498W        W20096  10.622   6.022   5.486  0.0098 -0.0242 -0.1397
16499W        W20097  10.637   2.710  15.847  0.1524  0.3415  0.3198
16500W        W20098  11.125  14.382  15.456 -0.2869 -0.1614  0.0037
16501W        W20099  15.302   5.868  11.045  0.1808 -0.1513  0.1267
16502W        W20100   8.917  16.383  10.892 -0.0602  0.1711 -0.1249
16503W        W20101  16.292   6.301  11.352  0.2247  0.3560  0.0458
16504W        W20102   5.164   8.710   7.232 -0.0455  0.1545 -0.3149
16505W        W20103  15.340  12.246   7.595 -0.0131 -0.0891 -0.1328
16506W        W20104   8.257   6.705   4.721 -0.0511  0.0968  0.1382
16507W        W20105  10.524  14.197  13.091 -0.1445  0.0589  0.1227
16508W        W20106  11.761  10.422  13.696  0.3474 -0.0208  0.2343
16509W        W20107   8.408  11.995   4.651 -0.4163 -0.3685  0.3593
16510W        W20108   4.040  14.647   7.042 -0.0132 -0.1010  0.1032
16511W        W20109   8.642   6.167  15.332  0.2563 -0.1540 -0.0093
16512W        W20110   7.522  10.696   4.258  0.0024 -0.0019  0.0825
16513W        W20111   1.233  13.539  11.998 -0.2160  0.0563 -0.1197
16514W        W20112  10.015   3.420   3.647  0.0771  0.1402  0.4269
16515W        W20113   1.437  13.674   7.991  0.1008  0.0296 -0.0104
16516W        W20114  10.319   0.410  15.757 -0.0230 -0.0527  0.1779
16517W        W20115   2.820   2.656  11.829 -0.0936  0.0069  0.2273
16518W        W20116   3.177   8.759   2.495  0.1041  0.0227  0.2592
16519W        W20117  16.157   8.476   6.941  0.1293 -0.1289 -0.2562
16520W        W20118   2.347  13.968   7.596 -0.1964 -0.1106  0.0150
16521W        W20119   4.745  12.264   9.953  0.1163 -0.2800 -0.1852
16522W        W20120  14.926   0.552   3.762  0.0807 -0.0173 -0.1243
16523W        W20121  11.294   0.373  14.571 -0.0480  0.3000 -0.0140
16524W        W20122  13.652  11.286  12.028  0.1422  0.1706  0.0228
16525W        W20123  14.695   5.030   2.759  0.1986 -0.1820  0.1250
16526W        W20124   8.773   5.833  12.561 -0.3200  0.1658 -0.3757
16527W        W20125   9.752  10.598   2.298  0.0166  0.1247 -0.0254
16528W        W20126  15.364   4.766   0.203 -0.1099 -0.0975 -0.2300
16529W        W20127   5.699   2.049   3.376 -0.1704  0.0035 -0.1635
16530W        W20128   8.949   4.721  14.391  0.0245  0.0315  0.0579
16531W        W20129   9.379   5.721  11.550  0.3486  0.1240 -0.0245
16532W        W20130  14.733   1.130   2.636  0.3812 -0.1144  0.1286
16533W        W20131   4.822  11.298   7.671  0.1807 -0.2346 -0.0054
16534W        W20132   7.477   6.686   0.864  0.0751 -0.2934 -0.3841
16535W        W20133   7.332  10.979   1.261  0.2048  0.0579  0.0959
16536W        W20134   9.065  11.043   8.957  0.2168 -0.1501  0.3163
16537W        W20135  15.599  10.337   1.394  0.0599  0.1136 -0.2751
16538W        W20136  16.369  11.060  15.605  0.1461 -0.3081  0.1137
16539W        W20137   3.697   9.505   8.524  0.3554  0.2998  0.1024
16540W        W20138  12.368  11.958  13.866 -0.0340  0.1696  0.2214
16541W        W20139   9.074   6.533   8.507 -0.2177  0.1182  0.0255
16542W        W20140  12.155   0.868   0.471 -0.3377 -0.2202  0.1830
16543W        W20141  10.709   3.555   6.922  0.0657 -0.0756 -0.0348
16544W        W20142  10.115  13.107  10.355  0.0320  0.0453 -0.5890
16545W        W20143   8.567   0.331  10.860 -0.2274  0.1150 -0.1332
16546W        W20144   5.415   8.324   4.643 -0.0052  0.5481 -0.0296
16547W        W20145  10.668   1.206   6.001  0.0291 -0.3141  0.1791
16548W        W20146  11.195   4.076  13.246 -0.2901 -0.1673 -0.0305
16549W        W20147  13.050  15.574  13.224 -0.1268  0.2308  0.3060
16550W        W20148   2.046   1.996   5.089 -0.1512  0.1145 -0.0828
16551W        W20149  14.394  15.153   3.306 -0.0396 -0.0507 -0.0197
16552W        W20150   5.323  11.998  11.476 -0.1794  0.1466  0.2402
16553W        W20151  10.314   2.789   9.259  0.0763 -0.0847 -0.0005
16554W        W20152  10.762  11.625  13.098  0.0518  0.0444 -0.2191
16555W        W20153  10.897   9.385   3.293  0.1882 -0.0219 -0.2001
16556W        W20154  14.533   4.675   0.084  0.1684 -0.2109 -0.0102
16557W        W20155  13.684   2.664   6.166 -0.0600  0.0497 -0.2005
16558W        W20156  11.187   1.408  15.336  0.1912  0.3338  0.0641
16559W        W20157  11.664  10.262   0.938 -0.1922  0.3676 -0.3010
16560W        W20158   6.770  13.181   2.372 -0.0057 -0.2933  0.1555
16561W        W20159   7.920   5.027   2.221  0.1245  0.0525 -0.0149
16562W        W20160   7.100   1.880   1.650 -0.1912 -0.0095  0.4031
16563W        W20161   3.727  13.250   2.503  0.0987 -0.1419 -0.3047
16564W        W20162   7.045  11.695   9.022 -0.0235 -0.0074 -0.0394
16565W        W20163   6.043   0.404   2.655 -0.0649 -0.0428 -0.1071
16566W        W20164  11.983  13.493  15.693 -0.0643 -0.0124 -0.2112
16567W        W20165  15.342  12.426   1.529 -0.0787  0.1750 -0.0150
16568W        W20166   5.926   0.640   2.229  0.1085 -0.0831 -0.1301
16569W        W20167   8.305   6.137  11.443  0.0585 -0.0323 -0.2690
16570W        W20168  13.782  13.591   4.604 -0.0040 -0.2441 -0.3028
16571W        W20169   9.251   6.984  14.141  0.0502  0.2853 -0.3521
16572W        W20170  11.793   4.706   1.892 -0.0967  0.0774  0.0234
16573W        W20171   3.631  15.411   6.753  0.0346 -0.1124 -0.1713
16574W        W20172   7.968  10.396  15.713 -0.2805 -0.1502 -0.3517
16575W        W20173   8.455  12.471  14.306 -0.3084  0.1453  0.1456
16576W        W20174  10.597   3.714  13.773 -0.0788  0.1503  0.0012
16577W        W20175   0.289  14.793   8.932 -0.0544  0.2253  0.0125
16578W        W20176   4.791  10.783  12.494 -0.2137 -0.1871  0.0965
16579W        W20177   4.299  10.507   7.712  0.0901  0.1890  0.4064
16580W        W20178   1.944   5.849   7.098  0.1984 -0.1242  0.0493
16581W        W20179   1.428  13.082   9.286 -0.0032  0.1868  0.0894
16582W        W20180  12.708  11.559  11.807  0.0482  0.1546  0.0544
16583W        W20181  16.306   8.975   9.458 -0.0513 -0.4939 -0.1314
16584W        W20182   4.480   1.911   1.491  0.1743 -0.1512  0.1203
16585W        W20183  11.558  10.709  10.512  0.0035  0.2156  0.0465
16586W        W20184   4.649  11.527  12.681 -0.0894 -0.1460  0.0116
16587W        W20185  12.374   0.417   0.191 -0.1794  0.0853 -0.1976
16588W        W20186   3.844  13.372  12.274  0.1335 -0.2241  0.4181
16589W        W20187  15.803  10.148   9.554 -0.2842 -0.0600  0.2432
16590W        W20188   7.068   5.556   5.869 -0.1007 -0.1649 -0.3512
16591W        W20189  14.586   7.053  10.668 -0.4435  0.1869 -0.0652
16592W        W20190  11.572  10.483   2.144  0.2808  0.0201 -0.0765
16593W        W20191  13.818  12.839   2.190  0.0225 -0.3203  0.1141
16594W        W20192  10.125  10.425  14.043 -0.2129 -0.1263  0.0281
16595W        W20193   0.366   7.477   8.003  0.2868 -0.0195 -0.0235
16596W        W20194   1.095  14.161   8.221 -0.0934  0.1910  0.0705
16597W        W20195  12.365   6.547   5.337 -0.2836  0.2386  0.0250
16598W        W20196   7.884  12.411   9.624 -0.0330  0.0260 -0.0782
16599W        W20197  15.036   8.389  13.349 -0.0244  0.1928 -0.0618
16600W        W20198  13.795   9.157   7.424 -0.1778  0.2054  0.1081
16601W        W20199   1.322  11.410  10.971  0.1744  0.0624 -0.0688
16602W        W20200  15.886  11.127   4.527  0.0304  0.5081 -0.0535
16603W        W20201   0.400   6.797  14.511 -0.0413 -0.2400  0.2152
16604W        W20202   4.766  10.058   1.718 -0.0877  0.1721 -0.3736
16605W        W20203   6.085  15.967  14.503 -0.3837  0.2712 -0.0709
16606W        W20204   5.484   0.700  13.745 -0.0438 -0.3239  0.1999
16607W        W20205  10.075   1.187   7.554  0.0132 -0.0042  0.2563
16608W        W20206   4.342   6.633   9.307  0.1081  0.1008  0.0906
16609W        W20207  16.171   6.130   0.080 -0.1272  0.0080  0.0834
16610W        W20208   1.264   3.684  12.896 -0.4614 -0.0972 -0.1660
16611W        W20209   0.497   2.449   4.458  0.1327 -0.0778 -0.0153
16612W        W20210  14.895   1.623  15.876 -0.1146  0.3141  0.0666
16613W        W20211   1.127  13.103  16.386  0.3038 -0.2151  0.0667
16614W        W20212  14.652   8.089  14.422 -0.0989  0.1581  0.3475
16615W        W20213   9.158   8.194   2.439 -0.1318  0.0267 -0.0225
16616W        W20214   3.000   5.932   8.077 -0.0822  0.0824  0.0243
16617W        W20215   8.179  15.856  10.780  0.0928 -0.2550  0.0098
16618W        W20216  15.238   4.153   9.650  0.1913  0.2789  0.0963
16619W        W20217  10.113  14.959   2.283 -0.0098 -0.0044 -0.1691
16620W        W20218   4.177   0.742   7.629 -0.3192 -0.0621 -0.2570
16621W        W20219  12.806  13.206   9.186 -0.0981 -0.3284  0.0882
16622W        W20220  15.819  14.640   2.640  0.1682  0.1063  0.2063
16623W        W20221  14.939   8.367   5.036  0.1131 -0.0147  0.2098
16624W        W20222  12.724   2.434   1.951 -0.0211 -0.3361  0.0973
16625W        W20223  11.666   0.644  14.789 -0.0790 -0.1295 -0.1555
16626W        W20224   1.069   9.039   1.499  0.2288 -0.3159  0.2016
16627W        W20225   9.205   0.165  13.994 -0.0901  0.0284  0.3840
16628W        W20226   8.494   9.804  15.353  0.1704  0.2481 -0.0467
16629W        W20227   3.745   9.628  11.739 -0.0380 -0.1483  0.1765
16630W        W20228  10.713  14.941  13.493  0.1397 -0.1582  0.0363
16631W        W20229   6.687  14.998   3.954 -0.0579  0.0532  0.3017
16632W        W20230   0.790  15.033   5.298  0.2445  0.1518 -0.1419
16633W        W20231  14.142  11.450   6.082  0.1768  0.1605 -0.2110
16634W        W20232   7.764  16.169  10.921  0.1182  0.1752 -0.0629
16635W        W20233   6.932   1.185   2.928 -0.0676 -0.0239  0.0285
16636W        W20234  15.383  11.354   0.725 -0.1160 -0.0511  0.2824
16637W        W20235   5.442  14.638   0.051  0.1397 -0.1810  0.6189
16638W        W20236   2.702  13.360   5.874  0.0179 -0.1626  0.0537
16639W        W20237  12.317   0.384   9.404 -0.0619 -0.0986  0.0660
16640W        W20238  13.283   2.840   8.997  0.2047  0.2645 -0.1218
16641W        W20239   1.153   3.499   3.179  0.2413 -0.2049  0.1623
16642W        W20240  12.031   7.957   2.913  0.0332  0.1911 -0.1097
16643W        W20241   7.060  12.709  11.916  0.1661  0.0271  0.0252
16644W        W20242   7.191  12.819  15.164  0.2027  0.0504 -0.1277
16645W        W20243   2.143   2.923   7.860  0.2132 -0.0292  0.1529
16646W        W20244   4.765   8.795   4.255 -0.0512  0.2836 -0.2677
16647W        W20245   8.769  15.657  11.780  0.0822 -0.0752  0.4540
16648W        W20246   5.768   3.348   3.321 -0.1833 -0.0172 -0.2820
16649W        W20247   8.177  13.013  15.546 -0.0002 -0.1418  0.0092
16650W        W20248  10.498   2.695   5.373 -0.0479 -0.1445 -0.0102
16651W        W20249   5.643   8.464   7.744 -0.1194  0.0156  0.1284
16652W        W20250  11.454  12.639   8.102  0.1185 -0.0151  0.0572
16653W        W20251   8.623   2.614   0.221 -0.3638  0.3046 -0.3333
16654W        W20252   2.381   8.823  14.109 -0.0731  0.1058  0.1426
16655W        W20253  13.565   0.690   6.519  0.0714 -0.1869 -0.0217
16656W        W20254   8.821   5.548   2.416  0.0423 -0.2781 -0.1475
16657W        W20255   8.695   2.169  13.701  0.0284  0.1010  0.1191
16658W        W20256   8.602  12.740   7.141 -0.0029 -0.0627 -0.3528
16659W        W20257   7.194   3.044   0.715  0.2206  0.0311  0.0560
16660W        W20258  10.581   9.609   0.750  0.1655 -0.0277  0.1903
16661W        W20259  13.059  13.326   5.993 -0.1002 -0.0376  0.3799
16662W        W20260   3.793   8.643  15.147 -0.3678 -0.1707  0.2418
16663W        W20261  11.328   9.524  13.039 -0.1659  0.0361  0.5295
16664W        W20262   9.675   3.707   4.274  0.3141  0.1052  0.0891
16665W        W20263   3.557  12.142   3.720  0.1181  0.0546 -0.0883
16666W        W20264   1.229   8.586   1.820  0.0240  0.1428 -0.1827
16667W        W20265  12.338   2.209   9.679 -0.3950  0.1115 -0.3390
16668W        W20266   1.529   8.745   2.218  0.1521  0.1300  0.1630
16669W        W20267  12.623   0.425   1.620  0.1421  0.1567 -0.2796
16670W        W20268   0.118  12.994   2.543  0.3068 -0.1753  0.0528
16671W        W20269   6.531   7.866  13.001 -0.0475  0.2181  0.1201
16672W        W20270  12.949  16.145   4.056  0.0923 -0.1556 -0.1203
16673W        W20271   3.136   2.303   1.954 -0.1445  0.0096  0.1254
16674W        W20272   1.904   0.506  11.655 -0.1808 -0.0626  0.0433
16675W        W20273   8.517   2.939  12.205 -0.0953  0.1038 -0.1248
16676W        W20274   6.991   7.318   9.236 -0.1898  0.1765  0.1291
16677W        W20275   3.853   4.586   5.591  0.1250 -0.1503  0.0454
16678W        W20276   2.083   8.676   5.350 -0.0570 -0.0366 -0.3353
16679W        W20277   3.165  15.765  14.438 -0.2365 -0.2923 -0.2562
16680W        W20278   1.291   1.392  14.766 -0.1876  0.1952  0.0644
16681W        W20279   8.482   8.472   4.462  0.0092  0.4849  0.2064
16682W        W20280   4.467   9.572  11.333 -0.0447 -0.0079 -0.1121
16683W        W20281   7.857  15.693   5.704  0.1635 -0.0999 -0.1037
16684W        W20282   4.068   2.288  11.362  0.1483  0.0187  0.2947
16685W        W20283   2.547   6.263   8.846  0.1050 -0.0929  0.1208
16686W        W20284  11.821  15.498  13.008 -0.2372 -0.3367 -0.4781
16687W        W20285  10.491   5.918   8.655  0.2039 -0.0652  0.2003
16688W        W20286  10.424   8.779   0.213  0.3053  0.0622 -0.0962
16689W        W20287   9.284   0.975   0.378 -0.2098 -0.0227 -0.1090
16690W        W20288   8.407   3.638   1.121 -0.1863  0.0400  0.3334
16691W        W20289  15.743   4.153  12.804 -0.0240  0.0620 -0.0866
16692W        W20290  11.550  14.559   5.708 -0.2995  0.0620 -0.1600
16693W        W20291  15.103   8.087   0.092 -0.0266  0.1484  0.1645
16694W        W20292  12.598   2.407   0.987 -0.1693 -0.0624  0.1947
16695W        W20293   3.049   0.561   8.961  0.0278  0.0509 -0.1782
16696W        W20294   8.304   8.868  16.102  0.3757 -0.1307  0.4942
16697W        W20295   7.277  13.807   4.932 -0.0261  0.1157 -0.0962
16698W        W20296   0.887  12.550  13.421 -0.3665  0.1656 -0.4301
16699W        W20297  13.176   5.100   1.942  0.2952 -0.1290 -0.2313
16700W        W20298   1.493   1.412  12.807  0.0707 -0.3759 -0.0888
16701W        W20299   1.918  13.360   2.091  0.3068  0.1313 -0.0845
16702W        W20300   6.343  10.307  15.451 -0.1587  0.0375 -0.0426
16703W        W20301   9.006   1.317  13.148  0.1459 -0.1699  0.1394
16704W        W20302  15.227  11.328   7.499 -0.3812 -0.0204 -0.2176
16705W        W20303  15.687   4.738   2.077  0.0670  0.2893 -0.1024
16706W        W20304  13.267  12.254   6.457 -0.0059  0.1353 -0.1379
16707W        W20305   8.676  14.048   7.030  0.1390  0.1580 -0.2266
16708W        W20306   4.989   2.875  16.393  0.2230  0.3940  0.0052
16709W        W20307   5.456  12.464  14.854 -0.2005  0.0373 -0.1313
16710W        W20308   7.340   2.057   8.574 -0.0962  0.2622 -0.2691
16711W        W20309   2.599  13.867  14.946 -0.2743 -0.0101  0.0143
16712W        W20310   2.781   6.325  14.738 -0.1148 -0.0217 -0.1351
16713W        W20311   6.210   5.943   2.781  0.0925  0.1576 -0.1907
16714W        W20312   8.299  11.341   2.619 -0.0578  0.0807 -0.1969
16715W        W20313   0.684  14.579  15.142  0.4672  0.1905  0.3394
16716W        W20314   4.573   1.898  10.730 -0.3369 -0.1499  0.0383
16717W        W20315   2.367  16.044  13.504 -0.2339 -0.0295  0.0837
16718W        W20316   8.906  10.345   9.448 -0.1200  0.1633  0.1056
16719W        W20317  13.421   0.099   8.998 -0.2071 -0.0865 -0.1764
16720W        W20318   2.377   5.016  12.869  0.0919 -0.0812 -0.0254
16721W        W20319   8.767   7.829   2.386 -0.1624 -0.1247  0.2234
16722W        W20320   7.490  11.009  14.368  0.1841  0.0046  0.0936
16723W        W20321   8.886   9.189   3.188  0.2982 -0.1770 -0.0456
16724W        W20322  10.569  13.737  11.537 -0.0963  0.1779 -0.1976
16725W        W20323   4.197   9.410   8.608 -0.0795  0.1013  0.1080
16726W        W20324  15.681  13.435  11.330  0.3641 -0.3496  0.0064
16727W        W20325  12.876   7.589   5.267  0.2864 -0.3094  0.1667
16728W        W20326   6.458   5.074   0.723 -0.0569 -0.1782  0.3736
16729W        W20327   6.975  11.325   1.758  0.3823 -0.0425  0.0283
16730W        W20328   2.726   7.174   1.639  0.0847  0.1614  0.0074
16731W        W20329  15.681   5.615  13.481 -0.0370 -0.0192 -0.0311
16732W        W20330   3.093   4.513   3.529 -0.0695 -0.0739  0.1205
16733W        W20331  12.091   2.358  13.876  0.2552  0.0510 -0.1985
16734W        W20332  15.098   8.883   2.552  0.2019 -0.0234  0.1835
16735W        W20333   7.110  14.331  12.930  0.1678 -0.1440  0.2366
16736W        W20334  16.008  14.978   9.479  0.2572 -0.0303 -0.0452
16737W        W20335   5.231  15.738   0.154 -0.0824  0.0593 -0.2125
16738W        W20336  13.746   9.226  11.628 -0.1537  0.1196 -0.0721
16739W        W20337   5.615   7.874   4.650 -0.1619  0.0824  0.2135
16740W        W20338  15.116   7.782  10.531  0.1131  0.0471 -0.4366
16741W        W20339  11.465  14.161   7.458  0.2089  0.1008  0.1591
16742W        W20340   7.313   3.119   7.330 -0.3187 -0.0600 -0.1445
16743W        W20341   6.010  11.170  13.797 -0.2991  0.0080  0.1645
16744W        W20342  13.863   0.896   1.782 -0.1519  0.0823  0.3084
16745W        W20343   4.949  12.889   9.122 -0.1409 -0.0937  0.3646
16746W        W20344   1.958  13.305   8.821 -0.4202  0.2007  0.3024
16747W        W20345  11.969   5.298  14.232 -0.1828 -0.1106  0.1199
16748W        W20346   7.337   5.797   7.896  0.1631 -0.1733  0.0876
16749W        W20347   7.870  10.007  13.535 -0.4954  0.0523  0.1495
16750W        W20348   7.623   1.546   3.471 -0.1137  0.0844  0.2271
16751W        W20349  14.172   4.643  15.495 -0.0650  0.0712  0.0067
16752W        W20350   4.223  14.763  10.774 -0.0719  0.0015 -0.0403
16753W        W20351   4.967   0.726  11.543 -0.3212 -0.3689 -0.1222
16754W        W20352   7.170   3.060   5.821 -0.2580 -0.0617  0.2283
16755W        W20353   1.713   7.143   7.663  0.0080 -0.1451 -0.1346
16756W        W20354  15.958  12.750   6.429  0.0251  0.0788  0.3825
16757W        W20355  14.381   2.940  14.811  0.3237 -0.0204  0.0729
16758W        W20356   0.043   6.628   5.026  0.2113 -0.1569  0.1010
16759W        W20357   0.584   9.694  16.318 -0.0199 -0.2143 -0.3331
16760W        W20358   7.527  15.272   1.697  0.1183  0.0196 -0.0953
16761W        W20359   6.110   5.353   9.461  0.0859 -0.1959  0.0971
16762W        W20360  16.366   5.630   5.849 -0.3955  0.3193 -0.1167
16763W        W20361   4.621   2.538   0.705 -0.1080 -0.1526 -0.0409
16764W        W20362  11.562  12.774   5.416 -0.0817 -0.0364 -0.1086
16765W        W20363  16.037   8.330   2.408  0.0050  0.1312 -0.2075
16766W        W20364   3.642   8.886   6.243  0.1558 -0.0191 -0.0595
16767W        W20365   3.227  11.293   5.054  0.0148  0.3080 -0.2354
16768W        W20366   8.533   9.520   9.837 -0.1928 -0.0891  0.1093
16769W        W20367  10.295   3.193  12.132 -0.0694  0.1826  0.1524
16770W        W20368  11.180  13.043  14.729 -0.1690  0.1399  0.2798
16771W        W20369  13.208  15.247  12.829 -0.0072 -0.0757 -0.0528
16772W        W20370   2.027   4.876  15.163  0.1191 -0.0268 -0.0701
16773W        W20371   7.718   3.141   4.890 -0.2814  0.0284 -0.2060
16774W        W20372   0.232  13.263  14.318  0.0995 -0.0052 -0.0331
16775W        W20373   9.979  14.807   1.811 -0.0530  0.2651  0.1840
16776W        W20374  10.932   1.842  15.683  0.1887  0.0392  0.0714
16777W        W20375   5.622   4.433   2.603 -0.1825  0.2839 -0.2059
16778W        W20376   5.486   9.617  15.696 -0.2868 -0.2258 -0.0108
16779W        W20377   2.326  11.131   2.900  0.1225  0.1891  0.2168
16780W        W20378   7.143   4.913   9.056  0.0716  0.0581 -0.3132
16781W        W20379   6.503  12.484   7.133  0.1759 -0.2777 -0.0761
16782W        W20380   3.586   8.009   2.438  0.1043  0.1011 -0.1452
16783W        W20381   3.503   8.257   7.238  0.3023  0.2986 -0.1289
16784W        W20382  10.996  14.023  16.302 -0.1730  0.2490  0.1529
16785W        W20383   9.843   3.143   0.274  0.0398 -0.0156 -0.3787
16786W        W20384   0.321  14.140   5.427  0.0470 -0.0506 -0.2188
16787W        W20385   1.153   6.640  11.895  0.1281 -0.1269  0.0664
16788W        W20386  14.001  14.913   7.474 -0.2084 -0.2142  0.1340
16789W        W20387  10.629   1.179   2.949 -0.1905  0.0845  0.3083
16790W        W20388  11.515  10.113  12.377  0.0018  0.2945 -0.2259
16791W        W20389  12.125   1.990   1.601  0.2658  0.2824 -0.0627
16792W        W20390  11.448   3.956   6.673  0.2061 -0.2690  0.0220
16793W        W20391   4.422   2.621  11.602 -0.1641  0.2784  0.2771
16794W        W20392   8.442   7.173   9.753  0.0329  0.1787 -0.2293
16795W        W20393  14.830   4.265  12.849  0.0278  0.1288  0.0368
16796W        W20394   7.203   6.909   7.335 -0.2664  0.0986  0.1177
16797W        W20395   1.592  12.408   7.512 -0.0885 -0.1586 -0.2098
16798W        W20396   8.045   0.948  10.216 -0.3470 -0.1622 -0.1081
16799W        W20397  13.198  11.166   5.881  0.1562 -0.0843 -0.0530
16800W        W20398   9.608   9.910  16.251 -0.3033  0.1217 -0.1268
16801W        W20399   7.135  10.846  15.309  0.0446 -0.0558 -0.2823
16802W        W20400   6.019   8.143  11.800  0.0038 -0.1813  0.1810
16803W        W20401  13.453   4.349   8.698  0.1549  0.0120 -0.2152
16804W        W20402  10.487   3.752   9.974 -0.1945  0.0622 -0.0846
16805W        W20403  11.390  11.176   2.856  0.1346 -0.1363 -0.1051
16806W        W20404   2.554  13.112  16.104  0.2963 -0.2181 -0.0376
16807W        W20405  12.995  15.680   0.749  0.1891  0.0993 -0.1331
16808W        W20406  10.737  14.740   9.271  0.1172  0.2347  0.0036
16809W        W20407  14.398  11.343   4.342  0.0209 -0.0996  0.1294
16810W        W20408   0.100   7.666   5.501 -0.0734 -0.1508 -0.0231
16811W        W20409   7.480  12.470  12.148 -0.0522 -0.2191 -0.1695
16812W        W20410   4.496  14.665  11.569  0.0157 -0.0426 -0.0429
16813W        W20411  16.101  15.230   5.787  0.2264 -0.2321 -0.1546
16814W        W20412   0.633   6.471  13.379 -0.1554  0.2974  0.1239
16815W        W20413   9.966  16.130  10.386  0.2443  0.0078  0.3702
16816W        W20414   6.371  13.891   7.035 -0.1172 -0.0408 -0.2561
16817W        W20415  11.997   8.289  14.022 -0.0085  0.1191 -0.0567
16818W        W20416  16.150  14.675   1.836 -0.2838 -0.1694 -0.2544
16819W        W20417  12.014   4.534   2.952 -0.2373  0.1047  0.0563
16820W        W20418   3.846   1.750   8.727  0.3151  0.0278 -0.1770
16821W        W20419  14.741  11.908   6.793 -0.1724  0.4602 -0.1125
16822W        W20420   7.858   9.257  15.197 -0.1599 -0.1522  0.1467
16823W        W20421   0.197   2.062   9.051 -0.2792  0.0374 -0.0010
16824W        W20422  10.660   7.751  13.804  0.2406  0.3466 -0.1194
16825W        W20423   5.225   4.731   7.107 -0.3233 -0.1353  0.0608
16826W        W20424  11.283  11.411   9.838  0.1646  0.0978  0.2655
16827W        W20425  15.506  14.908  11.102  0.1315  0.1942 -0.2777
16828W        W20426  11.588  14.245  15.520  0.0556 -0.0493 -0.2281
16829W        W20427   2.959   1.673  13.870 -0.1473  0.3033 -0.1455
16830W        W20428   1.027  11.299   8.471  0.1532  0.1558 -0.0061
16831W        W20429  12.503   4.950  12.534 -0.1611  0.2698  0.2562
16832W        W20430   5.257   5.050  13.424 -0.0109  0.0917 -0.0278
16833W        W20431   6.870   8.965   4.357 -0.0205  0.1358 -0.0755
16834W        W20432   7.742  13.602  12.443 -0.2978  0.0308 -0.1159
16835W        W20433   7.976   6.345   3.881  0.2377  0.1576 -0.0362
16836W        W20434   9.365   6.716   7.802  0.0182  0.1056  0.0625
16837W        W20435   3.210  13.308   9.410  0.1134 -0.1714  0.1376
16838W        W20436   9.591   5.129   0.544  0.0251  0.1101 -0.1599
16839W        W20437   4.560   6.549   0.400 -0.0726  0.0305  0.1864
16840W        W20438   9.428   8.066  12.225 -0.3229  0.0671  0.1201
16841W        W20439   1.651  13.180   6.807 -0.0346  0.2172  0.1438
16842W        W20440   8.541  14.653   8.678 -0.1435  0.0248 -0.2627
16843W        W20441   6.212  13.088  13.796 -0.1513 -0.0377 -0.0605
16844W        W20442  10.089  13.954   7.764  0.1471  0.1686 -0.1455
16845W        W20443   2.989   2.505   6.926 -0.0067  0.0894 -0.0398
16846W        W20444   3.059   9.736   9.328  0.0814 -0.1211  0.0798
16847W        W20445  14.159   8.413  13.868  0.2567  0.0812  0.1245
16848W        W20446   2.689   4.410  14.671 -0.1312 -0.1817  0.3315
16849W        W20447  11.229   6.537  14.879  0.0312  0.0000 -0.2330
16850W        W20448   6.948  10.816  13.685 -0.0084  0.2478 -0.0909
16851W        W20449  16.325  14.822  10.889  0.2644 -0.0442 -0.0001
16852W        W20450   1.491   6.459  12.292 -0.1756  0.0159  0.0090
16853W        W20451   5.720   2.488   7.447 -0.1108  0.1468  0.0498
16854W        W20452   0.197   4.405  13.416 -0.5379 -0.0517 -0.0677
16855W        W20453  15.386  14.370   2.717 -0.1002 -0.2666  0.0735
16856W        W20454   8.204  13.083   3.373  0.0470  0.0880 -0.2323
16857W        W20455   3.244   6.002  13.365  0.2632  0.0843  0.1434
16858W        W20456   9.265   9.275   3.519 -0.3453  0.0997  0.0057
16859W        W20457  10.413   9.975  15.523  0.1508  0.4509 -0.0084
16860W        W20458   3.489   3.892   6.735  0.0825  0.0755 -0.1854
16861W        W20459   7.728   1.694   4.266  0.3836 -0.1476  0.2213
16862W        W20460   8.274   9.362   3.606  0.2141 -0.1288 -0.0846
16863W        W20461   3.653  14.404  16.197 -0.1336 -0.0699  0.1574
16864W        W20462  12.396   6.811   3.403 -0.0604 -0.3084 -0.1425
16865W        W20463  10.580   6.203   6.551  0.5339  0.3148  0.0618
16866W        W20464   9.259   9.061  13.188  0.0805  0.1026  0.1193
16867W        W20465  11.357  14.039  12.005  0.0783 -0.1817  0.4941
16868W        W20466  13.258   3.714   7.967 -0.1927 -0.0679  0.0461
16869W        W20467   0.021  16.208   8.034  0.0489 -0.0622  0.1752
16870W        W20468   0.346   3.275  14.039  0.1852  0.1592 -0.3724
16871W        W20469   1.578   7.221  10.695 -0.4270  0.0875  0.2684
16872W        W20470   7.288  14.940  14.852  0.1078  0.5202 -0.0883
16873W        W20471  12.648   1.970   6.938  0.1186  0.1167  0.0022
16874W        W20472  15.967   1.435  11.317 -0.0556  0.1379 -0.0121
16875W        W20473   9.083  10.714   5.860  0.1193 -0.1622 -0.2497
16876W        W20474  15.961   1.971  13.864 -0.1581  0.1083 -0.1289
16877W        W20475   2.575  13.591   9.233  0.3121 -0.0416  0.1409
16878W        W20476  10.029  13.474  15.594 -0.1975  0.1871  0.1928
16879W        W20477  14.848  14.151   5.984  0.2189  0.0018 -0.0470
16880W        W20478   5.315   8.735   0.970  0.1589 -0.3285 -0.1685
16881W        W20479  12.403   9.664  14.844 -0.0474 -0.3521  0.1702
16882W        W20480   7.170   4.739   8.585  0.1427  0.1216 -0.2952
16883W        W20481   8.022  14.223   8.208 -0.0584  0.0038  0.5662
16884W        W20482  11.432   2.416  10.868  0.0595 -0.1376 -0.0720
16885W        W20483  15.713  10.333   4.124 -0.1028  0.4265  0.2814
16886W        W20484  10.928   4.991   8.446  0.2005  0.0873  0.1742
16887W        W20485  11.948   2.182   9.969  0.2453  0.0671 -0.0355
16888W        W20486  15.147  14.203   9.459 -0.1125 -0.0735 -0.2433
16889W        W20487   2.452  16.015  16.352  0.0786  0.0109  0.0770
16890W        W20488   9.199   7.980   0.121 -0.2425 -0.3243  0.0109
16891W        W20489  14.967  11.375   9.747  0.0239 -0.1099  0.1058
16892W        W20490  14.685   3.868   5.575 -0.1063  0.1769 -0.0291
16893W        W20491  13.619   5.090   2.089  0.2220 -0.2574 -0.0186
16894W        W20492   9.533   0.266   6.571 -0.3921  0.1106  0.0375
16895W        W20493   4.432   9.059   7.053 -0.3125  0.2167  0.2379
16896W        W20494   9.042   3.396  12.599  0.1407  0.1799 -0.0875
16897W        W20495   8.772   8.200  11.967  0.2466  0.1108  0.0141
16898W        W20496   5.884  12.444   7.152  0.1528  0.0424  0.1360
16899W        W20497  15.776  13.298  12.907  0.2195 -0.0137  0.1159
16900W        W20498   5.236   0.072   2.379  0.2740 -0.1986 -0.0702
16901W        W20499   7.546  15.138   6.388  0.0143  0.2383 -0.0915
16902W        W20500  16.069  15.970  16.321 -0.2317 -0.2790 -0.2150
16903W        W20501   1.985   8.243   1.593 -0.1495  0.1350 -0.3908
16904W        W20502   2.804   4.502   1.809  0.1440  0.2277 -0.0705
16905W        W20503  11.825   8.438   9.448  0.0594 -0.0584 -0.3317
16906W        W20504   3.289   4.356  10.648  0.0673  0.2236 -0.3784
16907W        W20505   3.632   6.153   7.563 -0.1480 -0.2286  0.1551
16908W        W20506  14.389   5.673  11.780  0.0338  0.0484  0.0273
16909W        W20507  13.697   2.764  14.150 -0.2414  0.2761  0.0168
16910W        W20508   3.113  10.456  10.794  0.0543 -0.2658  0.4294
16911W        W20509   0.494   8.575  15.112 -0.1402 -0.4552 -0.1843
16912W        W20510  13.431  15.460  13.603 -0.2832 -0.1821  0.0496
16913W        W20511  11.679   5.756  14.057  0.0277 -0.0343 -0.3008
16914W        W20512  11.985   5.377   6.764  0.2508  0.1938 -0.3204
16915W        W20513   0.483   4.069   3.645 -0.1325 -0.3743  0.0603
16916W        W20514   5.166   9.639   9.398 -0.1428  0.2417 -0.1836
16917W        W20515   3.850  11.531   7.024 -0.0393  0.1263  0.2117
16918W        W20516  12.569  13.311  14.997 -0.2896  0.1767  0.1445
16919W        W20517  14.121   8.535  12.823 -0.0294 -0.0542  0.2638
16920W        W20518  11.795   9.559   4.254 -0.1499  0.3020 -0.2353
16921W        W20519  14.763   6.619  11.712  0.2155  0.0991 -0.0577
16922W        W20520   8.282   9.041   9.030 -0.2440  0.0793  0.1801
16923W        W20521   8.162  12.455   8.829  0.2911 -0.0672  0.5442
16924W        W20522   5.518   1.697   0.254  0.2126  0.2299  0.4134
16925W        W20523   0.687   7.760   4.327 -0.1309  0.2417  0.0351
16926W        W20524   5.516  10.063   0.157 -0.3107 -0.2212 -0.0318
16927W        W20525   5.883   5.326   7.097 -0.1687 -0.0436 -0.0844
16928W        W20526   6.621   8.993  13.877  0.2315 -0.1404 -0.0498
16929W        W20527   1.048   7.667   9.955  0.0246 -0.0739  0.0610
16930W        W20528  14.607  10.735  16.260 -0.0368  0.2246  0.2192
16931W        W20529   2.837   5.292   2.084 -0.3920  0.0453  0.1256
16932W        W20530   2.715  14.350  14.834  0.1073  0.0526  0.1691
16933W        W20531   7.450   3.525   4.923  0.1067 -0.4503 -0.3259
16934W        W20532  12.107  13.830   7.919  0.1470 -0.0174  0.2962
16935W        W20533   0.995   5.354  13.396  0.1614  0.3942  0.2218
16936W        W20534  14.601  14.104  11.503 -0.3269  0.1305 -0.0444
16937W        W20535   9.803   8.477  12.591 -0.0766 -0.1112  0.3660
16938W        W20536  12.120  11.100  11.613 -0.2960 -0.0980  0.1221
16939W        W20537   9.032   5.966   0.690  0.0734  0.1420 -0.2146
16940W        W20538  13.184   5.182  11.175  0.3700 -0.0872  0.2908
16941W        W20539   9.991  14.554  11.587  0.2783 -0.1705  0.0542
16942W        W20540   6.321  12.268  14.425 -0.3598 -0.0122  0.1563
16943W        W20541  13.231   2.780   3.058 -0.0762  0.0247 -0.3326
16944W        W20542   7.116  12.292  16.003 -0.1560  0.1170 -0.2141
16945W        W20543  11.206   6.627  16.349  0.2500  0.0928 -0.2800
16946W        W20544   2.148  16.162   0.566 -0.0652 -0.0610  0.2681
16947W        W20545   5.220   1.261   1.563  0.0664 -0.0040  0.0487
16948W        W20546   4.523  12.351  14.737  0.0721 -0.2181  0.0367
16949W        W20547  15.439  11.313   7.022 -0.0669 -0.1822  0.2005
16950W        W20548   7.926   7.007  12.106 -0.0613 -0.3201 -0.1377
16951W        W20549  15.908   6.938  10.146  0.2034  0.0972 -0.2325
16952W        W20550   0.090   3.980   7.378 -0.2204 -0.1450 -0.0010
16953W        W20551   6.902   9.311   3.914 -0.3098  0.0814  0.0390
16954W        W20552   6.257   4.074  11.274  0.0071  0.0719  0.1409
16955W        W20553   1.932   7.290  12.251  0.0804 -0.3681  0.1041
16956W        W20554  10.206   6.288  10.551 -0.3387  0.3003  0.0244
16957W        W20555   6.317  14.223   3.162  0.0638  0.1747 -0.3215
16958W        W20556  11.223   9.701   6.566 -0.3309  0.2457  0.0560
16959W        W20557   4.928  13.091  14.346 -0.2580 -0.2758 -0.1748
16960W        W20558  15.465   5.685   4.399  0.1462  0.0363  0.1915
16961W        W20559   2.105  14.634   0.804  0.0556 -0.0863 -0.0638
16962W        W20560   7.977   4.423  12.088 -0.1050 -0.1053  0.1118
16963W        W20561   3.985   4.480  13.977 -0.0184  0.0349 -0.1050
16964W        W20562  11.170  12.761   2.362 -0.3833  0.0183 -0.0189
16965W        W20563  11.787  11.572  11.040 -0.0295  0.1740 -0.0017
16966W        W20564   3.541   4.179  12.565  0.1009 -0.1333 -0.0599
16967W        W20565   3.309  13.234  15.681  0.1994 -0.1129 -0.0674
16968W        W20566   4.642   9.474   7.301  0.3216  0.2384  0.0483
16969W        W20567  15.534   6.395   5.030  0.2273 -0.2007 -0.2463
16970W        W20568   4.142   2.722  13.216 -0.0459 -0.1916  0.0672
16971W        W20569   7.428   3.505   8.532  0.1272 -0.2294 -0.1232
16972W        W20570  13.701   7.452  11.699 -0.0456  0.3074 -0.3013
16973W        W20571   7.588   9.311   6.007 -0.3435  0.0045  0.1279
16974W        W20572  14.353  16.323   2.378 -0.0854 -0.1890 -0.1372
16975W        W20573  13.785  16.129  14.925 -0.1591 -0.2070 -0.0548
16976W        W20574   8.885   5.662   4.044  0.1827  0.0604  0.1796
16977W        W20575  10.295   6.687   3.788  0.0562 -0.2064  0.0527
16978W        W20576   8.503  12.833   9.915  0.0863 -0.2185  0.2138
16979W        W20577   2.388  15.063   2.723  0.3559  0.0653  0.2387
16980W        W20578   0.838   4.435  14.894 -0.0279  0.3212  0.0608
16981W        W20579   9.708  12.320   1.940 -0.0042  0.0874 -0.0695
16982W        W20580   6.222   3.229  12.036 -0.3806  0.0846 -0.1754
16983W        W20581   4.442  15.500   4.544 -0.0267 -0.1030 -0.0446
16984W        W20582   3.079  14.196   0.796  0.0131  0.0646  0.0314
16985W        W20583   4.849   4.917  13.182  0.0068  0.2451  0.2691
16986W        W20584  14.443   5.774   4.470  0.2293  0.0714  0.1509
16987W        W20585   1.956  12.734   2.134  0.1873  0.2048 -0.3584
16988W        W20586   5.123   9.810  10.416  0.4372  0.0078 -0.2565
16989W        W20587   4.421   4.815  12.983  0.1011  0.0428  0.1111
16990W        W20588   3.325   6.705   0.918  0.2942  0.0754 -0.1278
16991W        W20589  13.812  14.418  15.770 -0.0823 -0.3426  0.1194
16992W        W20590  10.875   5.436   1.278 -0.0141 -0.1813 -0.1485
16993W        W20591  13.981   8.396   4.068 -0.0687  0.2153  0.1925
16994W        W20592   4.297  12.017  14.356 -0.2657 -0.2901 -0.1876
16995W        W20593   8.298   5.444   3.643  0.2720 -0.3022  0.0353
16996W        W20594  16.271   8.730   4.677  0.1407 -0.3118 -0.0007
16997W        W20595   2.487   5.779   8.164  0.0892  0.2808 -0.0690
16998W        W20596  11.949   6.864  13.590  0.0975 -0.1213  0.0967
16999W        W20597  15.782  13.211  10.105 -0.0556  0.0525  0.1042
17000W        W20598   6.377  12.964  15.690  0.0848 -0.1696  0.0549
17001W        W20599   5.674   7.870   3.727  0.0689 -0.0636  0.1134
17002W        W20600  14.300   2.689  15.263 -0.0755 -0.0085 -0.3242
17003W        W20601   9.595  13.294   3.771  0.1706  0.1078  0.0412
17004W        W20602   8.331   7.776   3.693 -0.1286 -0.0976  0.3397
17005W        W20603  11.470  12.720  13.122  0.1908 -0.2680  0.3774
17006W        W20604   8.598  15.170   1.787  0.1093 -0.1663  0.1727
17007W        W20605   3.919   0.071  15.458 -0.1171 -0.1691  0.2451
17008W        W20606   3.256  16.369  12.906  0.2423 -0.0599  0.0622
17009W        W20607  10.655   1.592  12.550  0.0587  0.0205 -0.2598
17010W        W20608   0.335  11.723   9.333  0.3968 -0.1533  0.0937
17011W        W20609   5.764   8.465   3.024 -0.2778 -0.1974  0.2205
17012W        W20610   3.784   5.140   5.525  0.3160  0.0230 -0.0852
17013W        W20611   6.452  11.009  13.488  0.1981 -0.4151  0.1124
17014W        W20612  11.924  12.236   1.955 -0.0223  0.5784  0.0971
17015W        W20613   2.726   8.441  10.995 -0.1629  0.1900 -0.0753
17016W        W20614  11.319   9.286   1.681 -0.0125  0.3111 -0.0698
17017W        W20615   6.224   6.702   2.141 -0.0407  0.1573  0.1647
17018W        W20616   9.005   4.676   4.978 -0.0082  0.0597  0.0087
17019W        W20617   9.301   5.001  13.035 -0.3567  0.1857 -0.1199
17020W        W20618   1.340   5.917   8.525  0.3041  0.3303 -0.0080
17021W        W20619  10.686   4.701  14.777  0.0507  0.2427 -0.1141
17022W        W20620  10.689   3.918  13.289 -0.0905  0.1746 -0.1863
17023W        W20621  14.407  12.243  10.815  0.1201  0.0689  0.0332
17024W        W20622   5.482  12.421   4.495  0.2308  0.0623  0.2448
17025W        W20623   7.755   4.113   9.035 -0.0731 -0.1421 -0.0761
17026W        W20624  15.030  15.381   2.666 -0.0506 -0.1891  0.3373
17027W        W20625  10.338  14.458   5.122  0.0028  0.1457 -0.1302
17028W        W20626  11.600   4.509   5.999 -0.0522  0.4653  0.0595
17029W        W20627   2.207   7.932  13.585 -0.2011  0.0691  0.2535
17030W        W20628   8.096   4.884   3.563 -0.0249  0.0688  0.1429
17031W        W20629   9.861   2.504  13.113 -0.4181 -0.1685  0.1005
17032W        W20630  10.133  11.470  14.580  0.2138  0.2783  0.0998
17033W        W20631   9.136  10.904   9.872 -0.0803 -0.1146 -0.2760
17034W        W20632   8.624  15.995   3.232 -0.1473  0.2211 -0.0651
17035W        W20633  10.313  16.246   2.243  0.2151 -0.2422 -0.0265
17036W        W20634  13.034   3.841   4.776  0.0342 -0.0197  0.0017
17037W        W20635   8.858  10.752   7.279  0.2184 -0.3379 -0.3814
17038W        W20636   7.095  10.604   9.587  0.0205 -0.2777  0.1417
17039W        W20637   0.965   7.152  12.103 -0.0366  0.0432  0.1959
17040W        W20638  13.710   0.534   4.322 -0.0833 -0.1176 -0.2836
17041W        W20639  11.746   8.662  13.403  0.3197 -0.0053 -0.0201
17042W        W20640  15.480  10.555  10.126 -0.1576 -0.0266 -0.0576
17043W        W20641  14.897   1.988   1.572 -0.0473 -0.0303 -0.0214
17044W        W20642  15.502   6.550   8.480 -0.1940 -0.0778  0.0422
17045W        W20643   9.315   7.965   9.751  0.0895 -0.4355  0.2450
17046W        W20644   0.206   5.125   8.762 -0.0014 -0.1356 -0.0408
17047W        W20645  14.987   1.013  15.740  0.1516  0.0121 -0.1043
17048W        W20646  12.844  10.299  11.009  0.0797  0.4760  0.0410
17049W        W20647   2.248   9.617   0.860 -0.0762 -0.0130  0.2428
17050W        W20648   8.594   2.478  16.023 -0.1687 -0.1843  0.0817
17051W        W20649  13.563  13.156   2.484 -0.0665 -0.0429 -0.1127
17052W        W20650   4.948  10.027  13.223  0.2528  0.2151 -0.0280
17053W        W20651   7.275   4.558   9.434 -0.4016 -0.2806 -0.3177
17054W        W20652   9.016   6.460   4.050  0.3756  0.0347  0.0661
17055W        W20653   4.982  11.783  11.142  0.1144 -0.1823 -0.1981
17056W        W20654   3.808   7.171   1.642  0.3054 -0.1911 -0.2045
17057W        W20655  16.155   3.674   5.046 -0.0400  0.0251  0.2080
17058W        W20656   2.694   0.784  13.669 -0.1359 -0.0237  0.4146
17059W        W20657   2.398  16.336   8.828  0.2609  0.2988 -0.0219
17060W        W20658   9.065   9.062   4.082  0.0273  0.3222 -0.0532
17061W        W20659   1.237   0.499  14.691 -0.0824 -0.0164  0.1182
17062W        W20660   6.772  15.463  15.953 -0.2398  0.1408 -0.3948
17063W        W20661   2.950  12.604   8.256  0.0372 -0.1022 -0.5925
17064W        W20662  12.815   9.191  11.843  0.1427  0.1128 -0.2131
17065W        W20663   1.609   2.280   7.922 -0.2056 -0.1074  0.0836
17066W        W20664   5.412   9.681   2.831 -0.0703 -0.0489 -0.0556
17067W        W20665   2.972  10.659   2.787 -0.0523  0.3088 -0.0855
17068W        W20666   3.860   1.667   2.871 -0.0320  0.2697  0.1630
17069W        W20667   1.831  13.964   1.342 -0.1333  0.2140  0.2493
17070W        W20668  12.644  15.083  13.222 -0.0387 -0.1567  0.0967
17071W        W20669  11.586   6.254   7.921 -0.1966 -0.0973 -0.0744
17072W        W20670   0.539  12.522   3.484 -0.3000  0.2939  0.0046
17073W        W20671   9.837   3.888  14.441 -0.0617 -0.2219  0.1873
17074W        W20672   9.306  10.126   4.962  0.0049 -0.0180  0.1132
17075W        W20673  10.821  10.930  15.671  0.0100  0.4157 -0.0470
17076W        W20674   7.525   3.466  14.121 -0.0396  0.4580 -0.0780
17077W        W20675   7.296   8.836  15.171  0.0207 -0.0968 -0.2068
17078W        W20676  12.533   5.532   9.699 -0.0339  0.1191 -0.4067
17079W        W20677  13.533  10.249  15.551  0.0227  0.0856 -0.0470
17080W        W20678  14.783   9.109   3.286 -0.2171  0.1903  0.1453
17081W        W20679   2.744   4.575  12.637 -0.1752 -0.4561 -0.1117
17082W        W20680   6.523  10.768   2.849  0.1429 -0.2015 -0.0425
17083W        W20681   6.422   5.643   7.971 -0.3443  0.1220  0.2055
17084W        W20682   5.378   6.606  10.440  0.0360  0.2432 -0.0081
17085W        W20683   4.227  16.113   7.130 -0.0687 -0.1845 -0.0533
17086W        W20684   6.850   3.399   6.196  0.2422  0.0976  0.1809
17087W        W20685   6.390   9.554   3.641  0.1139 -0.0926 -0.0903
17088W        W20686  11.292  16.135   0.490  0.1820  0.1596  0.0118
17089W        W20687   0.603   3.690   9.914 -0.3599  0.0635 -0.0838
17090W        W20688   2.654   5.169   5.705 -0.0449 -0.1034 -0.0738
17091W        W20689   2.403   0.401   4.859 -0.4871  0.2483  0.2580
17092W        W20690   4.077   4.867   9.691  0.0664 -0.1637  0.0664
17093W        W20691   5.755  13.836  12.474 -0.0741 -0.1216 -0.1403
17094W        W20692   4.808  15.344  13.704 -0.2654 -0.0166 -0.1724
17095W        W20693  16.085  12.168  10.459  0.0690 -0.1806 -0.0636
17096W        W20694   0.467  15.837   4.554 -0.1832  0.1087  0.2399
17097W        W20695  13.575  15.814   5.325 -0.1579  0.2582  0.0462
17098W        W20696   4.243   6.617  14.401 -0.3291 -0.0116  0.0206
17099W        W20697   3.638   2.323   5.872 -0.0481  0.2017 -0.0435
17100W        W20698  14.794   3.788   0.301 -0.0400  0.1763 -0.3073
17101W        W20699   4.571  10.831   3.381 -0.0535 -0.3581 -0.4352
17102W        W20700  14.013  14.623   6.632 -0.2933  0.1606 -0.0303
17103W        W20701   8.047   7.743   8.403 -0.4780 -0.3562 -0.1784
17104W        W20702   4.425   1.521   8.551 -0.0236 -0.0513  0.1367
17105W        W20703   5.852   3.641   5.187 -0.0907 -0.1704 -0.4486
17106W        W20704   3.063  16.061   7.849 -0.1766  0.3734  0.2559
17107W        W20705  11.569  11.545  13.532  0.2190  0.0867 -0.0606
17108W        W20706   5.116   6.653   1.098 -0.2683 -0.1510 -0.2431
17109W        W20707   5.817   3.830   9.804  0.1180 -0.2422 -0.0647
17110W        W20708   5.894  15.749   7.647 -0.2805  0.2002  0.2780
17111W        W20709  14.050   0.297   1.194  0.0384  0.2643 -0.0349
17112W        W20710   6.706  14.320  13.271 -0.0796  0.0921 -0.1583
17113W        W20711   5.410   6.821   3.090 -0.2449  0.2345  0.4732
17114W        W20712   5.847  11.257  10.266  0.2343  0.0520 -0.2406
17115W        W20713   2.324   5.004   4.404  0.1889 -0.3018 -0.0979
17116W        W20714  10.582   7.080   3.820 -0.2663  0.0023 -0.3032
17117W        W20715   8.975   6.520  16.205 -0.0317 -0.4491 -0.1299
17118W        W20716  14.335   7.258   6.221  0.1336  0.1038  0.0368
17119W        W20717  10.388  11.705   6.388  0.1441 -0.1442  0.0551
17120W        W20718   2.975  13.063  11.783  0.1909 -0.0284 -0.1539
17121W        W20719  11.003  11.848   6.828  0.2080  0.3179  0.0935
17122W        W20720   0.005  13.851   2.185 -0.0659  0.0635 -0.0594
17123W        W20721   7.508   9.138   0.500 -0.0768 -0.2283 -0.0211
17124W        W20722   0.732   1.636   2.872  0.1683 -0.1290  0.1440
17125W        W20723   2.705   0.868   1.371  0.1298  0.0966  0.3186
17126W        W20724   5.639  15.333   0.362  0.1983  0.1105  0.2027
17127W        W20725  14.473   5.391  12.204  0.2883  0.0148 -0.1084
17128W        W20726   4.280   5.893   3.341  0.2756  0.0671 -0.1595
17129W        W20727  16.336   9.650  14.030 -0.0654 -0.2442 -0.0741
17130W        W20728  10.754  14.013  15.404 -0.1653 -0.1206 -0.2645
17131W        W20729  14.286  16.211   3.323  0.0248 -0.0517  0.0724
17132W        W20730  11.783  12.278   6.498  0.2243  0.0268  0.2658
17133W        W20731   7.089   0.464  12.518 -0.3986 -0.0066 -0.0666
17134W        W20732   0.578   6.026   1.908  0.0141 -0.0387  0.0258
17135W        W20733   1.764  15.105  10.582 -0.2998 -0.2013  0.0155
17136W        W20734   7.437   9.933  12.704 -0.0915 -0.4175 -0.2773
17137W        W20735  11.632  10.073   6.416  0.1910  0.0905  0.3962
17138W        W20736   3.856  13.107  11.469  0.1785  0.1450 -0.1240
17139W        W20737   9.234   5.447  11.109 -0.0678  0.2034  0.2308
17140W        W20738  13.267  10.515   4.258 -0.1576 -0.1388 -0.1528
17141W        W20739   7.596   2.910   8.290 -0.2942  0.0520  0.0943
17142W        W20740   4.144  10.710   8.649 -0.0853 -0.1812 -0.1646
17143W        W20741   5.368  14.151   5.281 -0.0132 -0.0885 -0.0161
17144W        W20742  14.628   1.313  16.265 -0.0486 -0.0936 -0.3738
17145W        W20743   5.220   7.448   6.945  0.0737  0.0158 -0.5983
17146W        W20744  10.322  10.779   7.388 -0.2525  0.2547 -0.1876
17147W        W20745   7.621   6.037   3.622  0.0577 -0.2060  0.0262
17148W        W20746   1.837   6.146   5.384  0.1144 -0.0724  0.4181
17149W        W20747   4.526  14.596  12.597  0.0599 -0.1431 -0.0387
17150W        W20748  14.368  14.542   7.306  0.0752  0.0594 -0.0135
17151W        W20749   2.641  15.075   8.458  0.0036  0.1199  0.4581
17152W        W20750   8.637   3.794   4.139  0.3939 -0.1001 -0.2332
17153W        W20751  14.356   0.813  14.873  0.1285 -0.1937  0.3141
17154W        W20752   1.429  11.116   1.610 -0.0848 -0.2134 -0.1604
17155W        W20753   3.999   1.362   0.316 -0.3243 -0.1482 -0.0107
17156W        W20754  13.339   4.250  10.262  0.0985  0.1232 -0.0090
17157W        W20755   4.393   2.792  12.200  0.0401  0.3256 -0.0815
17158W        W20756  11.259   0.154   7.306 -0.1216 -0.1621  0.2919
17159W        W20757   1.745   4.883  16.011 -0.0746 -0.3346  0.1622
17160W        W20758   0.323  14.391   3.773 -0.0513 -0.1768  0.1995
17161W        W20759   7.540  10.373   0.086  0.0587  0.1342 -0.1842
17162W        W20760   6.444   2.317  12.923  0.4282  0.3832  0.1820
17163W        W20761  16.095  13.191   2.784  0.3440 -0.1786 -0.0251
17164W        W20762  10.743   4.689   7.163  0.2490  0.0465 -0.0955
17165W        W20763  16.344   1.882  14.956 -0.0818 -0.2561 -0.0464
17166W        W20764   2.840  12.945   9.639  0.0106 -0.0073  0.3042
17167W        W20765  14.199   4.081  12.408  0.0391  0.0897  0.0702
17168W        W20766   9.761   8.792  11.568 -0.0129 -0.3026 -0.1133
17169W        W20767  12.906   1.425  15.020 -0.2837  0.1204  0.0268
17170W        W20768  14.142   9.616  10.653 -0.2711 -0.2125 -0.1212
17171W        W20769   9.509  10.865  12.474  0.2711 -0.1151  0.0181
17172W        W20770   4.853  13.071   7.336  0.0055  0.1726 -0.0602
17173W        W20771   9.039  11.978  13.924 -0.1237 -0.0126 -0.3464
17174W        W20772  11.910  14.573   3.329 -0.1430 -0.1314  0.3046
17175W        W20773   9.311   8.469   8.334  0.0951 -0.2233 -0.2942
17176W        W20774   6.735   1.500  14.234 -0.1231  0.2099  0.0801
17177W        W20775   4.666   5.028   4.967 -0.2473  0.1708  0.1254
17178W        W20776   0.465  13.940   9.242  0.0127  0.2175 -0.0411
17179W        W20777   4.525   8.661  10.523  0.2625  0.0489 -0.1793
17180W        W20778   5.890   9.403   2.908  0.1483  0.0721 -0.0793
17181W        W20779   0.547  16.380   0.534  0.3887  0.0996 -0.1295
17182W        W20780  10.039  15.668   0.115  0.1888 -0.1197  0.2696
17183W        W20781  15.145   3.084  12.311  0.0932  0.0343 -0.1313
17184W        W20782   2.600   6.724  10.664  0.5679  0.0211 -0.1647
17185W        W20783  14.316   4.030   3.932  0.2461  0.5250 -0.1679
17186W        W20784  13.472   6.978   5.438  0.0670 -0.1007 -0.1885
17187W        W20785   4.184  13.278  15.653 -0.2833 -0.1578  0.1917
17188W        W20786   3.961   1.225   3.676 -0.1339  0.1251  0.1981
17189W        W20787   9.261   5.232   2.721  0.1320 -0.1547 -0.2057
17190W        W20788  12.024   9.152   2.425  0.1615  0.1507  0.1907
17191W        W20789   4.904   7.714   0.237  0.0249  0.0179 -0.0827
17192W        W20790   5.485   5.950  14.699  0.0797  0.0815 -0.2852
17193W        W20791  10.249   7.100  15.849  0.0917 -0.0089  0.1516
17194W        W20792   0.967   1.431  15.253  0.2444 -0.2253 -0.1157
17195W        W20793  12.476   7.082   9.945  0.0850  0.0702  0.2174
17196W        W20794   8.434   9.153   6.754 -0.3507  0.0573  0.0195
17197W        W20795  13.999   9.234  14.004  0.0908 -0.0526 -0.0795
17198W        W20796   2.980   5.865   9.677 -0.2759 -0.0517 -0.0630
17199W        W20797   0.471  15.196   9.253  0.2694  0.0472 -0.1161
17200W        W20798   8.372   3.160   3.246  0.1076  0.5169  0.0082
17201W        W20799   0.672  16.366   5.207 -0.1106  0.2250 -0.1185
17202W        W20800   0.829  12.991   6.144  0.0356  0.2886 -0.2362
17203W        W20801   7.276   9.680   4.163 -0.0311 -0.1361  0.2008
17204W        W20802   5.782  10.437   3.360 -0.3477  0.1695 -0.2275
17205W        W20803   7.679  15.496   8.950 -0.0670  0.1414  0.0083
17206W        W20804  13.735  15.576   6.383  0.0085  0.3525 -0.0859
17207W        W20805  11.003  15.732   2.091 -0.3216  0.1075  0.2691
17208W        W20806  15.255  10.773   1.404  0.1178  0.1465  0.5079
17209W        W20807  12.179   7.923   4.592  0.2020 -0.0890 -0.2636
17210W        W20808   3.609   0.944  12.880  0.2245 -0.0369  0.0795
17211W        W20809   6.997  12.238   1.412 -0.3014 -0.3547 -0.1363
17212W        W20810   4.079  14.265   9.846  0.0330 -0.2539 -0.0292
17213W        W20811   1.981  13.435   0.368 -0.1678  0.2004 -0.3025
17214W        W20812   2.115   8.738   1.346  0.0064  0.2969 -0.1587
17215W        W20813   6.121  13.142  11.822 -0.1365 -0.0268  0.1871
17216W        W20814  15.720  14.058   0.774 -0.0690  0.0784 -0.0918
17217W        W20815  11.720   4.384   5.539 -0.0942  0.2574  0.0212
17218W        W20816   5.414   8.735  10.654  0.0864 -0.1340 -0.1273
17219W        W20817  11.044  14.154  14.474 -0.0648  0.0922  0.1762
17220W        W20818  15.365  10.375   0.936 -0.1696 -0.0378  0.0606
17221W        W20819   3.517   8.952  13.822 -0.0532 -0.0094  0.0307
17222W        W20820  13.722   7.235   9.565  0.1193 -0.0992 -0.1615
17223W        W20821   2.066   7.782  15.101 -0.1263  0.4470  0.1667
17224W        W20822   3.657   2.237   6.344 -0.0205  0.0223 -0.1638
17225W        W20823  12.704   0.429  14.516 -0.0630 -0.1495 -0.2537
17226W        W20824  11.146   1.212   6.680  0.1892  0.1095 -0.1094
17227W        W20825   0.065   4.986   6.040 -0.0611 -0.1078 -0.0721
17228W        W20826   9.715   3.809   2.176  0.1775 -0.1684  0.0738
17229W        W20827   1.349   8.310  15.564 -0.1025 -0.1472 -0.1230
17230W        W20828   1.392  14.779   2.487  0.0499  0.0564 -0.0415
17231W        W20829  14.512  13.890  14.694  0.1744 -0.3007 -0.0027
17232W        W20830   1.442  10.867   9.254  0.1741 -0.0963  0.0769
17233W        W20831  15.042   1.714   0.643 -0.1009 -0.0147  0.0946
17234W        W20832  11.932   8.620  10.464  0.1563 -0.1781 -0.1717
17235W        W20833   2.799   8.967   5.725 -0.0243 -0.0421  0.1583
17236W        W20834   5.777   1.889  13.420 -0.0512 -0.4430 -0.0373
17237W        W20835   3.591   3.804   1.098 -0.2028 -0.0256  0.5345
17238W        W20836  14.599   7.121   4.080  0.3191 -0.2649  0.0370
17239W        W20837   4.397   2.143   7.993  0.1411 -0.0622 -0.1485
17240W        W20838   0.581   1.808   5.059 -0.0320  0.0176  0.1096
17241W        W20839  15.760   3.636  12.834  0.0001 -0.1224  0.0981
17242W        W20840  13.334   9.119   7.175 -0.4365  0.1719 -0.1965
17243W        W20841   1.363  13.535   2.099 -0.1580  0.1863  0.1379
17244W        W20842   6.886   1.835   8.661  0.2298  0.2022 -0.0337
17245W        W20843  14.283  11.825   1.419  0.0883  0.1171 -0.3032
17246W        W20844   7.644   3.924   3.073  0.1667 -0.2252 -0.1509
17247W        W20845  10.219  16.000   9.085  0.1855  0.1746 -0.0037
17248W        W20846   2.704   7.682   1.408 -0.2233 -0.2685 -0.0818
17249W        W20847   1.198  15.817   2.382  0.1228  0.0623  0.1927
17250W        W20848   9.676   9.896   0.668  0.0905  0.2383 -0.0130
17251W        W20849   3.069   1.765   0.479  0.2335  0.3287 -0.2083
17252W        W20850   5.396   7.690  10.796 -0.2343  0.0351 -0.1181
17253W        W20851   2.681  11.840   3.420  0.3644 -0.2255  0.1980
17254W        W20852  12.430  14.933  14.755 -0.2101  0.1757 -0.1634
17255W        W20853  10.595  15.836   2.330 -0.1126  0.1870  0.0234
17256W        W20854   5.978  10.166  12.090  0.0198 -0.0754  0.0357
17257W        W20855   4.026   2.364   8.228 -0.1084 -0.0986 -0.0978
17258W        W20856   1.241   1.248  15.629 -0.0455  0.0020 -0.2123
17259W        W20857   1.619   2.475  11.765  0.0330 -0.0468  0.0503
17260W        W20858   8.014   8.809  13.430 -0.2127  0.0727  0.3216
17261W        W20859  16.346   7.370  12.269 -0.1566  0.0664 -0.1095
17262W        W20860  12.933   2.850  14.512 -0.0302  0.0250  0.2395
17263W        W20861  12.774   6.709  12.412 -0.1104  0.4381 -0.0819
17264W        W20862   4.199   6.831  11.775 -0.2151 -0.0817 -0.1753
17265W        W20863   0.386   4.131   9.928 -0.3524  0.1362  0.3972
17266W        W20864   0.200   3.527   8.180  0.1121 -0.0059  0.0748
17267W        W20865   6.097   1.312   9.174  0.3979 -0.1127  0.1941
17268W        W20866  13.645   4.600   4.920  0.0228  0.0958 -0.1512
17269W        W20867  16.335   2.837  10.098 -0.3478 -0.0787 -0.0745
17270W        W20868   2.988   4.357  13.048 -0.1031 -0.4174 -0.1409
17271W        W20869   1.001  10.018  10.907 -0.0300 -0.2304 -0.1677
17272W        W20870   8.286   7.438  15.690  0.0223 -0.0149 -0.3291
17273W        W20871   9.608  13.367  10.156 -0.3060  0.0025 -0.2241
17274W        W20872  15.679   1.982  15.480  0.5414 -0.0826 -0.0242
17275W        W20873  14.729   3.110   7.271 -0.1940 -0.2961  0.1123
17276W        W20874   9.704   6.831  13.496  0.0016  0.0078 -0.1512
17277W        W20875   5.490   7.560   8.533  0.0446  0.3295  0.0691
17278W        W20876   4.654   4.981   1.196  0.1350 -0.0239 -0.1219
17279W        W20877  12.519   2.739   7.290 -0.3674 -0.1605  0.2030
17280W        W20878   8.573   3.055  16.315 -0.0401  0.1494 -0.1077
17281W        W20879  13.312   6.133  15.909  0.0663  0.3485 -0.0267
17282W        W20880   4.289   2.582  13.823  0.0138 -0.1106  0.1052
17283W        W20881  15.683   6.519   4.296  0.2757  0.1019  0.1756
17284W        W20882   6.590   9.724  14.795 -0.0753  0.0408  0.0895
17285W        W20883   1.220  13.892   5.649  0.2288  0.0382 -0.1349
17286W        W20884  14.016  12.623   3.935  0.0267  0.0648 -0.0080
17287W        W20885   2.449  12.542   5.963  0.1142  0.1374  0.0942
17288W        W20886   5.105   6.603   4.649  0.1394  0.3572 -0.2237
17289W        W20887  13.157  12.157  11.057  0.1802  0.3391 -0.1225
17290W        W20888   0.235  12.576   3.096  0.3267 -0.0739 -0.1107
17291W        W20889  13.135  14.728   1.030  0.0829  0.1707  0.0713
17292W        W20890   5.276  14.549  13.169 -0.0833 -0.1117  0.2631
17293W        W20891  12.764  13.505   1.114 -0.0111 -0.2602 -0.2089
17294W        W20892   4.771   6.222  12.113  0.1169 -0.2411 -0.0684
17295W        W20893   4.094   4.429  13.261 -0.1186  0.3271 -0.0828
17296W        W20894  15.167  12.047  15.775 -0.0313 -0.0260 -0.1278
17297W        W20895  12.394  11.345  10.286 -0.0472 -0.0689  0.1627
17298W        W20896  12.108   0.116   7.574 -0.0719  0.2743 -0.1059
17299W        W20897   6.155  12.349  11.391 -0.0871 -0.1515  0.1227
17300W        W20898   4.769  14.949   5.494 -0.1323  0.2412 -0.0810
17301W        W20899   7.200  16.252   1.674 -0.4280  0.0574  0.1721
17302W        W20900   2.038  13.400  11.311 -0.3175 -0.0184  0.1438
17303W        W20901   3.503  11.795   9.434  0.1533 -0.0427  0.1468
17304W        W20902  10.537   6.261   5.945 -0.1391 -0.1527 -0.0839
17305W        W20903  15.294   8.166  10.886  0.0013 -0.1002  0.0204
17306W        W20904  13.975  13.428   9.614  0.1317  0.0404 -0.1689
17307W        W20905  12.805  10.829  14.322 -0.2405 -0.0726 -0.0986
17308W        W20906   7.169  14.729  10.782  0.0742  0.1632 -0.0455
17309W        W20907  10.843   9.088   0.223 -0.0261 -0.1199  0.3642
17310W        W20908   8.490  16.258   0.207  0.0654  0.0993 -0.0432
17311W        W20909   3.852  12.043   0.631 -0.1128  0.2528 -0.2588
17312W        W20910   0.941  16.233   5.679  0.0771 -0.1548 -0.0277
17313W        W20911  10.352  14.831   5.399 -0.0272 -0.1568 -0.1713
17314W        W20912   7.678   6.486   4.885 -0.0667 -0.0877 -0.3831
17315W        W20913   6.685  10.609  14.459  0.3619  0.0704  0.2301
17316W        W20914   6.981  10.809  12.356 -0.0785 -0.1804  0.1952
17317W        W20915   8.514  16.171  16.098 -0.0336  0.2016  0.3751
17318W        W20916  12.432  15.486   8.111  0.3518 -0.0857  0.0772
17319W        W20917   9.872   4.749  10.678 -0.1350  0.1791 -0.1817
17320W        W20918   3.381   2.919   8.895 -0.0648  0.3819  0.1189
17321W        W20919  13.298   8.971  14.430  0.0717 -0.1172  0.0587
17322W        W20920   3.887   4.669   5.072 -0.1802 -0.3260 -0.2402
17323W        W20921   9.050  13.854  12.847 -0.1172 -0.0813  0.0873
17324W        W20922  11.201  14.742  12.729  0.0839  0.0013 -0.2666
17325W        W20923  13.260   5.371   4.810 -0.0842 -0.3202 -0.0402
17326W        W20924   3.937  15.260   1.929 -0.1507  0.1366  0.4397
17327W        W20925   8.198  13.601   1.117 -0.1221 -0.0571 -0.1998
17328W        W20926  16.036   2.546   3.521  0.0557  0.2188 -0.2401
17329W        W20927  15.977  15.428   0.733  0.1010 -0.0853 -0.1486
17330W        W20928   1.131  10.869   9.705  0.1984  0.2779 -0.0164
17331W        W20929   9.000  11.762  11.424  0.0461 -0.0416  0.0669
17332W        W20930   8.945   0.546   4.880 -0.0724 -0.1186  0.2949
17333W        W20931  14.700   3.435   4.602 -0.3061  0.1822  0.0448
17334W        W20932   8.487  12.907   2.156 -0.0248 -0.2027  0.1131
17335W        W20933   4.497   3.034   3.863  0.0142 -0.1339 -0.1609
17336W        W20934   2.947   4.205  15.991 -0.1371 -0.2525  0.2394
17337W        W20935  10.410   6.807   4.962  0.3737 -0.0075  0.0173
17338W        W20936   9.399   7.402  16.288 -0.0545 -0.0165 -0.2254
17339W        W20937  11.798   8.701   5.773 -0.0033 -0.0094 -0.0156
17340W        W20938   9.480   2.084   5.085  0.2543 -0.1258  0.0268
17341W        W20939  12.001  12.952  14.309  0.1991 -0.1506 -0.1123
17342W        W20940   4.892   3.718   2.643  0.1271  0.0204 -0.0387
17343W        W20941   0.493  14.642   5.372 -0.4078 -0.0763  0.4939
17344W        W20942   3.364  15.410  14.708  0.0240 -0.1461  0.0037
17345W        W20943   9.537   9.264  11.629 -0.2347  0.1533  0.3261
17346W        W20944   4.246  12.943   0.100  0.0135 -0.2560  0.0774
17347W        W20945  16.352  11.279   8.786 -0.1286 -0.2007 -0.1412
17348W        W20946   8.453   6.608   7.716 -0.3281 -0.1327  0.0130
17349W        W20947  13.532   3.729   3.386  0.1292  0.1139  0.0340
17350W        W20948  12.458  12.594   6.926 -0.2365 -0.0455  0.1129
17351W        W20949  13.728   9.112   9.719  0.1494 -0.0059  0.0085
17352W        W20950   7.316  10.397  15.160 -0.0516  0.0959 -0.5243
17353W        W20951  14.506   6.167   5.881 -0.2746 -0.1868 -0.3496
17354W        W20952  16.304   8.764  11.740 -0.2158  0.0872 -0.0911
17355W        W20953  11.339   3.750   6.069  0.1697 -0.0617  0.0830
17356W        W20954  15.370  12.533  11.059  0.2381 -0.0080  0.2095
17357W        W20955   7.573  15.102  15.431 -0.0027  0.1842 -0.0211
17358W        W20956   9.013   6.969  13.634  0.3155 -0.0818 -0.1040
17359W        W20957   1.036   0.251  11.288 -0.1191 -0.0098  0.3128
17360W        W20958   4.661  14.181   8.753  0.0485  0.1931  0.1025
17361W        W20959  10.374  13.613  10.931  0.0065  0.0084  0.0006
17362W        W20960   6.332  10.562   2.310 -0.1855  0.0782 -0.0612
17363W        W20961   0.231   7.174   1.037 -0.2292 -0.0627  0.0895
17364W        W20962  15.970   2.116   8.808  0.0469 -0.0546  0.0740
17365W        W20963   0.268   9.393   7.041  0.4427  0.1891 -0.4295
17366W        W20964  14.131  10.686   3.312  0.0245  0.0663  0.2074
17367W        W20965  14.580   3.927  15.189  0.1340  0.2331  0.1624
17368W        W20966  14.224   8.882  13.183  0.2813 -0.4329 -0.0797
17369W        W20967   5.177   9.436   3.897  0.0953  0.0502  0.0649
17370W        W20968   0.923   1.856   9.552  0.1257  0.0049 -0.2129
17371W        W20969   2.532   8.011   8.144  0.1013 -0.0102 -0.1263
17372W        W20970  11.088  12.768   1.887 -0.3082 -0.1221  0.2155
17373W        W20971  11.796   4.983   4.453  0.3971  0.2746  0.0425
17374W        W20972   7.539   0.684  12.271 -0.0926 -0.2304  0.0704
17375W        W20973  10.372  11.194   5.238  0.0762  0.4092  0.0399
17376W        W20974  10.651  15.926  14.718 -0.0338  0.1259 -0.0901
17377W        W20975  15.565   9.992  12.410 -0.1095  0.4562 -0.2746
17378W        W20976   9.925  10.418   0.600 -0.1700 -0.2520 -0.2935
17379W        W20977   0.501  10.291   9.211 -0.1023 -0.2328 -0.0973
17380W        W20978  10.924   3.930  14.662 -0.3159 -0.0739 -0.2483
17381W        W20979   9.343  13.582   0.233  0.2967  0.1515  0.3348
17382W        W20980  12.573  15.479  11.665 -0.0044  0.2096  0.0013
17383W        W20981  16.148   6.097  10.407  0.1154 -0.1634  0.3907
17384W        W20982   3.015   6.277   3.964  0.0143 -0.1933 -0.1929
17385W        W20983   1.694   7.559  14.849  0.0428 -0.0017  0.1207
17386W        W20984  10.788   2.961  12.462  0.1713  0.1244  0.1640
17387W        W20985  13.674  14.435  13.755 -0.0145  0.0090 -0.0100
17388W        W20986  11.944   7.949   6.949  0.2595 -0.0457 -0.1416
17389W        W20987  15.128   5.055   3.217  0.0689  0.4347 -0.0001
17390W        W20988   5.219   9.996   1.876 -0.0620 -0.2769  0.0100
17391W        W20989  13.568   9.632   3.440  0.2427  0.2564  0.1736
17392W        W20990   6.844   9.018   6.662  0.0137  0.1853 -0.4555
17393W        W20991   2.065  12.604   8.092 -0.0114 -0.1324  0.1067
17394W        W20992   0.972   7.563  14.910 -0.1757  0.1076 -0.0225
17395W        W20993  14.537   1.281  10.085 -0.0702  0.0500 -0.1208
17396W        W20994  13.248   0.191  13.677  0.0111 -0.0641 -0.0041
17397W        W20995   8.236   3.012  15.051  0.0751 -0.0445  0.1271
17398W        W20996   7.551   2.624   0.461  0.3611  0.0809  0.2668
17399W        W20997  10.225  10.551  11.483  0.1295 -0.1497  0.1606
17400W        W20998  15.964   8.614  14.149  0.0547  0.1229  0.0060
17401W        W20999   9.048  11.365  11.754  0.0351  0.3263  0.0175
17402W        W21000  10.551   7.891  16.228  0.0677 -0.1046  0.0131
17403W        W21001  10.010   9.577  14.657  0.0065 -0.0489 -0.1719
17404W        W21002   1.601   9.173   5.174 -0.0613  0.1065 -0.3101
17405W        W21003  10.780   1.707   7.993 -0.0418  0.0666  0.5266
17406W        W21004   0.967  10.444   1.824 -0.3820 -0.0330  0.0591
17407W        W21005   6.068  15.212   4.808  0.1927 -0.1905 -0.0926
17408W        W21006  14.763   6.678  13.748 -0.1407 -0.3116  0.2763
17409W        W21007  16.293   7.179  15.281  0.0715  0.2478  0.0545
17410W        W21008   4.283   1.202  12.125 -0.1333  0.1066 -0.0116
17411W        W21009   3.943   2.676  11.662 -0.2621  0.2634 -0.0425
17412W        W21010  13.941   4.861   8.519 -0.1911  0.0195  0.0844
17413W        W21011   8.887  14.881  14.713  0.2996  0.1101 -0.2156
17414W        W21012   3.470   4.814   3.766 -0.4575 -0.1312 -0.0779
17415W        W21013   2.993  10.116   1.746  0.0045 -0.1894 -0.0511
17416W        W21014  13.673   8.804   1.269  0.0896  0.0247 -0.0712
17417W        W21015   1.837   8.553   4.067 -0.2630 -0.1713  0.1149
17418W        W21016   7.995  14.656   7.418 -0.1513  0.2044  0.0607
17419W        W21017  10.175   1.385  15.248 -0.0138  0.0562  0.1954
17420W        W21018   0.558   7.706   4.884 -0.1421 -0.0613 -0.0555
17421W        W21019   3.185  10.364   6.580  0.0482  0.0225  0.1387
17422W        W21020   8.319  16.291  14.295  0.1328  0.1256 -0.2913
17423W        W21021  14.575   9.198  14.503 -0.4096 -0.1140  0.0788
17424W        W21022   7.657  12.711  14.980  0.1639  0.0301  0.0699
17425W        W21023   3.282  11.112   9.557 -0.0579  0.0840 -0.0048
17426W        W21024  14.937  14.394   8.520 -0.0855  0.1380 -0.2080
17427W        W21025   4.014  11.832   6.489  0.0078  0.1470 -0.0854
17428W        W21026   4.392  13.572   6.106 -0.1271 -0.2768  0.2309
17429W        W21027  16.210   0.983   1.953  0.0316 -0.1180 -0.0249
17430W        W21028   9.121   2.941   6.789  0.0134 -0.1887 -0.2478
17431W        W21029   1.016  16.374  13.259 -0.1400  0.0147 -0.1129
17432W        W21030  10.372  16.330   0.591  0.4652 -0.0192 -0.1878
17433W        W21031  10.696   8.376   7.945  0.0780  0.1430 -0.2713
17434W        W21032   7.778  11.889   3.254  0.1448  0.1685 -0.1305
17435W        W21033  11.423   6.923  16.076  0.1223  0.1012 -0.4112
17436W        W21034   0.865   2.420   5.597  0.2991  0.2145 -0.0346
17437W        W21035   8.787   4.217   5.075  0.0954  0.1593 -0.1453
17438W        W21036   9.389  15.239   3.879  0.0209 -0.1003  0.0745
17439W        W21037   2.081   1.677  15.916  0.2727 -0.3085  0.3778
17440W        W21038   0.142   1.787   6.390  0.1477 -0.0231  0.0043
17441W        W21039  14.965   2.852   9.685 -0.1787 -0.0543 -0.1416
17442W        W21040  14.543  13.742  15.918  0.0344  0.2277 -0.1135
17443W        W21041   2.847   9.497   2.492 -0.0994 -0.0906  0.0483
17444W        W21042  15.349   8.042   5.823  0.1766  0.0090 -0.3486
17445W        W21043   6.951   8.414  14.233 -0.0168 -0.0294 -0.2113
17446W        W21044   3.977   0.091  14.104  0.3382  0.2326 -0.0646
17447W        W21045  12.526  13.886   1.905  0.0839  0.0228  0.0620
17448W        W21046   0.179   3.781   4.673  0.2971 -0.0089  0.1866
17449W        W21047  10.017  10.663  11.963 -0.0690 -0.3697  0.2504
17450W        W21048   9.137   3.672   0.071  0.0108 -0.1244  0.2349
17451W        W21049   5.162   4.878   1.225  0.2189 -0.4382  0.0330
17452W        W21050  11.312   0.917   3.941 -0.0115  0.0991  0.0433
17453W        W21051   3.882   8.224   3.536  0.0845  0.1829 -0.2521
17454W        W21052  14.824  12.899   2.186  0.5726  0.1017  0.0304
17455W        W21053   6.883  10.747   7.316  0.2809 -0.1531 -0.2916
17456W        W21054   9.368   3.889  11.463 -0.0982  0.1941  0.1989
17457W        W21055   3.594   2.701  14.112  0.1992 -0.0525  0.1522
17458W        W21056   2.213   9.523  16.161  0.0544 -0.1499 -0.0447
17459W        W21057   9.060   6.728   5.921 -0.0702 -0.1382  0.0273
17460W        W21058   3.567  11.854   6.746  0.0277  0.0493  0.1778
17461W        W21059   3.900   7.787   7.367 -0.2373  0.1153 -0.2340
17462W        W21060   9.970   6.746   4.730 -0.0718 -0.2266 -0.1366
17463W        W21061   5.787  11.167   4.577 -0.2049 -0.1467 -0.0434
17464W        W21062   1.233   3.751  14.797  0.2611 -0.0362  0.0401
17465W        W21063   0.743   2.152   9.928 -0.3678  0.2238 -0.0848
17466W        W21064   5.224  11.345  15.387  0.0215 -0.0264  0.0264
17467W        W21065  10.096  11.046   1.566 -0.1605  0.0521 -0.2018
17468W        W21066   4.053  16.171  11.840  0.1876  0.1960  0.0245
17469W        W21067   3.915   1.830   0.617 -0.0816  0.1637  0.0964
17470W        W21068   3.474  10.569   2.751 -0.2142 -0.0305  0.2585
17471W        W21069   4.747  15.297   4.976 -0.3462  0.1374 -0.2381
17472W        W21070   3.793   5.792   3.605  0.3472 -0.1099 -0.2702
17473W        W21071   5.581   1.924  13.893 -0.1438  0.2886  0.1417
17474W        W21072   0.352  14.562   1.512  0.0399  0.0779 -0.1743
17475W        W21073  14.809   3.858   6.927 -0.3545 -0.0598  0.1342
17476W        W21074  12.745   7.387   4.080  0.1945 -0.2004  0.1224
17477W        W21075  12.444   6.585  15.822  0.0754 -0.0397 -0.0834
17478W        W21076  14.541   0.951  12.782 -0.4091  0.0554  0.1046
17479W        W21077   1.851  13.528   9.309 -0.0687  0.0273  0.2265
17480W        W21078   3.519   3.625  13.193 -0.2244 -0.2286 -0.0423
17481W        W21079   0.636   4.659   2.171 -0.0706 -0.1832 -0.1325
17482W        W21080   1.507   3.697   5.042  0.1117 -0.0289 -0.1700
17483W        W21081   4.661  11.402  13.987 -0.1769 -0.1275  0.2503
17484W        W21082   7.370  12.025   6.136  0.0329  0.0694  0.1252
17485W        W21083  10.052   8.479  14.793 -0.3250 -0.1084  0.3517
17486W        W21084  15.551   4.714   3.450 -0.1777  0.3074  0.2086
17487W        W21085   1.837   4.400  10.143  0.0353 -0.3251 -0.5038
17488W        W21086  14.888  10.191   0.823 -0.0453  0.0209  0.0980
17489W        W21087  10.253  12.757   5.486 -0.3611  0.3382 -0.0882
17490W        W21088  11.811  11.387   5.401 -0.0257  0.0177 -0.1425
17491W        W21089   3.906   8.964   1.085 -0.0754 -0.1384  0.0439
17492W        W21090  16.184  14.229   3.893  0.3788 -0.2707  0.0185
17493W        W21091   7.370   9.148   4.181  0.1424  0.1181  0.0764
17494W        W21092   4.162   3.136   2.246  0.2307 -0.0367 -0.1655
17495W        W21093   3.887  14.292   9.355  0.1557  0.1247  0.1647
17496W        W21094   1.224  15.205   4.334  0.0173 -0.1601 -0.0933
17497W        W21095   9.770  14.926  13.795  0.0046  0.0490 -0.0960
17498W        W21096   0.975  13.962   1.890  0.0813  0.0213  0.0978
17499W        W21097  10.529   8.171  14.905 -0.1776 -0.3363  0.1471
17500W        W21098   7.386  11.885  13.944  0.2689  0.1677  0.1008
17501W        W21099   1.812  14.059  14.457  0.1227 -0.0320 -0.1456
17502W        W21100   4.363  13.024   1.323  0.1785 -0.3482  0.1349
17503W        W21101   1.161  11.037   2.045  0.0636  0.0332 -0.0331
17504W        W21102  12.108  14.514   4.876 -0.2349 -0.1472  0.0904
17505W        W21103   0.390  10.806  15.150 -0.1615  0.2414  0.0012
17506W        W21104   7.160  11.364   2.854 -0.2534  0.2835 -0.1586
17507W        W21105   9.658   2.485  13.708 -0.1288 -0.0497  0.1401
17508W        W21106  11.099   0.672  15.702 -0.2237 -0.2011 -0.0389
17509W        W21107   0.938   7.241  13.550  0.2010 -0.2908  0.1932
17510W        W21108  13.065   6.906   3.713 -0.1833  0.1646 -0.0842
17511W        W21109  10.817  11.485   2.810 -0.2908 -0.3389 -0.0307
17512W        W21110   3.945   0.793  11.756  0.1221  0.0289 -0.0656
17513W        W21111   0.460   0.400  10.573  0.6043 -0.1014 -0.1223
17514W        W21112   4.162   2.824  15.483 -0.2034 -0.2824  0.2585
17515W        W21113  12.155   0.239  12.396 -0.0371 -0.3247  0.2462
17516W        W21114   2.784  11.180   4.501 -0.1219  0.4328 -0.2058
17517W        W21115  12.672   1.280   5.299  0.0315 -0.0201  0.2284
17518W        W21116   1.458   8.089  16.094 -0.3080 -0.0440  0.1400
17519W        W21117   3.145   4.031  14.186  0.0384 -0.3207  0.2078
17520W        W21118   0.592   5.320   9.781  0.2539 -0.1119 -0.3658
17521W        W21119  12.828   6.614  15.151  0.0019  0.0125  0.2449
17522W        W21120   1.673  14.917   0.373  0.3347 -0.3082 -0.0774
17523W        W21121   5.484  16.164   1.988 -0.1639 -0.0048  0.0612
17524W        W21122  15.216   8.041  12.441  0.0444 -0.2476 -0.1013
17525W        W21123   1.171   0.804   8.105 -0.0764 -0.0378  0.1394
17526W        W21124   0.746   2.308   3.872 -0.1467  0.0479 -0.0819
17527W        W21125   7.617  12.979   6.263  0.0566 -0.3015  0.0563
17528W        W21126   6.799  11.172   3.061  0.3051  0.1296 -0.7071
17529W        W21127   6.460   7.351  12.077  0.3441 -0.1216  0.0180
17530W        W21128   7.250  13.621   4.355  0.2192  0.2969  0.0867
17531W        W21129   5.268  12.845   7.374 -0.1226  0.1809  0.2660
17532W        W21130   1.274  13.606  12.516  0.0589  0.1362 -0.0196
17533W        W21131  13.517  13.958   9.356  0.1648 -0.2441  0.0908
17534W        W21132   4.332   1.742  11.384  0.1511 -0.0717  0.2713
17535W        W21133  10.425  15.399  13.384 -0.2350 -0.0179 -0.2058
17536W        W21134   3.630   5.338   3.634 -0.3349 -0.1836  0.0550
17537W        W21135   9.454   1.932  14.578  0.0993  0.5319 -0.1851
17538W        W21136  11.310   8.539  13.665 -0.2213  0.1437 -0.0969
17539W        W21137  15.191   5.509   5.963  0.1453  0.2106  0.4121
17540W        W21138   5.329   3.380  11.950 -0.0626  0.1940  0.1040
17541W        W21139   2.476   1.842   4.356  0.2310  0.0405  0.3152
17542W        W21140  11.770   3.009   7.785 -0.1189  0.0283  0.0945
17543W        W21141   3.030  11.739   5.005 -0.0356  0.0559  0.0016
17544W        W21142  10.215  13.592   0.083 -0.0356 -0.1521  0.1423
17545W        W21143  13.955   0.394  14.761 -0.0620  0.0090  0.0320
17546W        W21144   4.401   4.435   8.070 -0.0326  0.3533  0.0196
17547W        W21145  10.727   3.477   4.196  0.1344  0.1658 -0.0630
17548W        W21146   3.133  11.442  16.068 -0.0187  0.2151 -0.0240
17549W        W21147   0.422   1.310   4.673  0.1799 -0.1785 -0.0022
17550W        W21148   7.607   3.358  10.825  0.2375  0.3272  0.1174
17551W        W21149   2.970  15.218  11.575  0.0243 -0.1141  0.1506
17552W        W21150   3.014   3.193  16.232  0.1522  0.0824 -0.0236
17553W        W21151   5.846   6.699  12.422 -0.2138 -0.1692  0.3503
17554W        W21152   1.899  15.833  13.264 -0.1064 -0.0258  0.1001
17555W        W21153   4.622   3.103  14.990 -0.1280 -0.0941  0.1466
17556W        W21154  12.876  11.348   1.617 -0.2687  0.2964  0.0575
17557W        W21155   3.780   7.542  12.786 -0.0928  0.1533  0.1325
17558W        W21156  12.909  16.304   9.003 -0.1011 -0.0017  0.0237
17559W        W21157   3.231   9.230   2.174  0.0347 -0.0593 -0.0820
17560W        W21158  10.734  14.947  12.694 -0.0926  0.1274 -0.0425
17561W        W21159   2.452  11.697  12.506 -0.4032  0.1276  0.2914
17562W        W21160  12.011  11.751   6.588 -0.3048 -0.1278 -0.0795
17563W        W21161   2.739  15.144  10.331  0.6052 -0.2159 -0.1337
17564W        W21162   9.852  11.360   5.288 -0.3092  0.0574  0.1840
17565W        W21163   4.569   3.906   8.998  0.2883 -0.0454 -0.0339
17566W        W21164   0.389  14.349   2.740 -0.1766 -0.0129  0.2722
17567W        W21165   5.491   8.568   9.268 -0.1015 -0.1472 -0.0082
17568W        W21166   9.004  12.923   5.962  0.3063 -0.2411  0.1381
17569W        W21167  13.796   1.766  16.107  0.2978 -0.0281  0.5268
17570W        W21168  10.316   9.560  13.125 -0.2671  0.1759 -0.3601
17571W        W21169   3.989   8.804  16.113 -0.0684  0.1054  0.1363
17572W        W21170   2.276  11.469   8.584 -0.1247  0.2559 -0.0094
17573W        W21171   5.018  11.632   9.580 -0.2789  0.1404  0.4531
17574W        W21172   3.502   0.060   7.681 -0.1030 -0.2384 -0.2361
17575W        W21173   3.192   2.105   1.519  0.0669  0.2195 -0.3258
17576W        W21174   8.853  10.601   8.619 -0.0016  0.1624  0.2053
17577W        W21175   0.907   3.568  10.857  0.2273 -0.0020 -0.0012
17578W        W21176  13.684  11.335   8.708  0.0467  0.3357 -0.3680
17579W        W21177   7.783   2.402   8.642 -0.0377 -0.1952 -0.0376
17580W        W21178  11.828  15.304  13.973 -0.4625  0.0440 -0.0763
17581W        W21179   5.310  10.812  15.585 -0.1293  0.1367 -0.0913
17582W        W21180  14.950  14.381  14.190  0.0831 -0.3271  0.3224
17583W        W21181   5.595  10.781   0.678  0.1568 -0.2895 -0.2037
17584W        W21182  11.914  14.433   2.325  0.1267  0.2338  0.0527
17585W        W21183   0.193  14.190   1.885  0.1526 -0.0524  0.1438
17586W        W21184   5.782   1.455  13.702  0.3379  0.0052  0.0539
17587W        W21185   1.825  11.474  10.777  0.0571 -0.1489  0.2117
17588W        W21186  10.355   3.362   0.063  0.2652  0.1209 -0.2856
17589W        W21187   4.555   2.596  15.106  0.2296 -0.1995  0.0404
17590W        W21188  12.778   7.808   0.942 -0.0318  0.1149  0.0611
17591W        W21189  14.410  11.998   6.071  0.1694 -0.0924  0.0042
17592W        W21190   5.175   1.164   2.426 -0.1065  0.0317 -0.1101
17593W        W21191   3.976   6.662  14.820 -0.3904 -0.0246 -0.1793
17594W        W21192   1.331   4.190   2.019 -0.0672  0.2508  0.2620
17595W        W21193   3.509  12.348   4.201 -0.2003  0.0597 -0.2595
17596W        W21194   8.656   1.012  11.722 -0.2744  0.1807 -0.0516
17597W        W21195  12.952   1.682   0.321 -0.1737  0.1311 -0.2134
17598W        W21196   0.700   8.698   3.820 -0.0604  0.2325  0.2619
17599W        W21197  14.059  14.689  16.117 -0.1561 -0.2002 -0.2315
17600W        W21198   0.700  15.961   2.202 -0.0237 -0.0196 -0.0637
17601W        W21199   1.005   5.512  13.917  0.0238 -0.0385  0.1514
17602W        W21200  10.079  15.752  13.576  0.0702 -0.2641 -0.0311
17603W        W21201  12.776   2.589  10.776 -0.0305  0.1331 -0.1117
17604W        W21202   6.649  12.815   1.996 -0.0700  0.1261 -0.1363
17605W        W21203   6.368   3.223   8.491  0.0048  0.1004 -0.2142
17606W        W21204  13.856   2.758   0.743 -0.2214 -0.1306  0.0074
17607W        W21205  15.912   5.543  12.544  0.1909  0.2631  0.0807
17608W        W21206  11.573  15.149  15.268  0.1922  0.2782  0.1347
17609W        W21207   6.794   8.679   6.181 -0.0906  0.0468 -0.1312
17610W        W21208  15.456  15.485   8.284  0.1356  0.0535  0.2514
17611W        W21209   4.682  11.456  15.968  0.1551 -0.3357 -0.2612
17612W        W21210   9.480   0.986   0.850  0.1047 -0.1882  0.3884
17613W        W21211   2.513   8.280  12.850 -0.1722 -0.0534 -0.3309
17614W        W21212   1.357   1.032   9.682  0.2079 -0.1377 -0.0115
17615W        W21213   7.068   6.314  13.738 -0.0375  0.1117 -0.2544
17616W        W21214  11.532  15.329   1.343 -0.0312 -0.2253 -0.0454
17617W        W21215   5.191  15.212   9.536  0.1381  0.3080 -0.2409
17618W        W21216  13.566   8.610  12.844 -0.2775  0.3608  0.1391
17619W        W21217  12.253   1.925  13.714  0.1116  0.1118  0.1590
17620W        W21218   5.895   4.529  16.090  0.0784 -0.4366 -0.1152
17621W        W21219   4.783  10.295  16.359 -0.1364  0.1264 -0.1059
17622W        W21220  10.045  12.707   9.808  0.3793  0.0469 -0.3332
17623W        W21221   6.095   5.536   4.829  0.0823  0.2017  0.0159
17624W        W21222  15.693  13.505   2.928  0.1202  0.1475 -0.0027
17625W        W21223   4.052  16.018   0.679  0.0739 -0.3892 -0.0736
17626W        W21224   8.408   7.209  15.276 -0.0696  0.2385 -0.0011
17627W        W21225  12.974   5.759   0.300 -0.1590  0.5563  0.1602
17628W        W21226   9.145   9.102  10.677  0.1536 -0.1056  0.0724
17629W        W21227   2.392   3.546  10.890 -0.0260 -0.0136 -0.0060
17630W        W21228   3.371   7.702  12.566 -0.2766 -0.2813  0.1170
17631W        W21229  11.171   4.586  13.851 -0.3384  0.1078 -0.0980
17632W        W21230  11.211   8.199  11.852  0.0691 -0.0536  0.4028
17633W        W21231  16.087   8.103  10.313  0.4089 -0.3733 -0.2316
17634W        W21232   2.630  15.429   8.072  0.0677  0.2336  0.1345
17635W        W21233  13.473  10.357  13.966  0.2916 -0.0683  0.0627
17636W        W21234  10.073   8.364  11.415 -0.4487 -0.0301 -0.2108
17637W        W21235   7.654   3.329  15.998 -0.2261 -0.0445  0.1324
17638W        W21236   5.875   2.601   8.968  0.0664 -0.3622 -0.2384
17639W        W21237  10.181  11.117  10.643 -0.2895 -0.1668 -0.1226
17640W        W21238   9.950   5.658  14.981  0.1599  0.2612 -0.0942
17641W        W21239  11.470   2.161   6.303 -0.3099 -0.2640 -0.0509
17642W        W21240   8.493   1.685  15.320 -0.0315  0.0843  0.0258
17643W        W21241   5.423   3.011   5.655 -0.1058 -0.0122  0.0293
17644W        W21242  11.696  10.590   6.643 -0.2577  0.1073  0.2195
17645W        W21243   6.030   6.579  15.119  0.0169 -0.1146  0.2106
17646W        W21244   6.439   2.386   0.064 -0.0956 -0.1935 -0.0992
17647W        W21245  13.545   9.235   6.774 -0.0374 -0.2492 -0.0420
17648W        W21246   2.108  12.009  12.100 -0.0922 -0.0125  0.0335
17649W        W21247  11.593   5.975   7.310  0.1881 -0.0691  0.0229
17650W        W21248  12.423  16.272  10.479  0.2115 -0.1486  0.1909
17651W        W21249  16.213  15.081  14.665  0.0357  0.0326  0.2398
17652W        W21250   1.168  13.392  11.455  0.0313  0.0031  0.0508
17653W        W21251  13.958   5.174   5.582 -0.2051 -0.3319 -0.1418
17654W        W21252  12.916  14.885  10.222 -0.1935  0.0432  0.1309
17655W        W21253  16.042  13.407   4.444 -0.0391  0.0977  0.1155
17656W        W21254   6.857  11.617  13.201 -0.3215  0.0324  0.0526
17657W        W21255  11.204   4.560   2.244 -0.0694 -0.0855  0.0755
17658W        W21256  11.508  10.776   6.024 -0.0378 -0.1447  0.1544
17659W        W21257  11.304   1.798   0.247 -0.3860  0.0919 -0.1216
17660W        W21258   3.062   0.044   0.763 -0.0452  0.2924 -0.1848
17661W        W21259  14.975  11.066   1.810 -0.0444 -0.0547  0.1231
17662W        W21260  13.738  15.131  10.575  0.1761  0.0441 -0.1115
17663W        W21261   1.201   5.728  10.115  0.0417 -0.4673  0.1394
17664W        W21262   7.195   7.883   3.801 -0.2398  0.0898  0.0924
17665W        W21263  13.221   3.875   1.135  0.3594  0.1012 -0.1254
17666W        W21264   7.700   7.026  15.887 -0.1294  0.0797  0.1209
17667W        W21265  13.240  12.052   4.043 -0.0984 -0.1287 -0.3489
17668W        W21266   6.907   0.046   4.445 -0.1747 -0.1707 -0.0673
17669W        W21267   0.793  14.857   2.115 -0.1099  0.0602 -0.3278
17670W        W21268  13.464   3.777  13.980  0.0311 -0.1299  0.1291
17671W        W21269   8.644  14.063  15.205  0.0037 -0.2085 -0.1085
17672W        W21270  14.744   8.862  12.524 -0.1780  0.0324  0.0535
17673W        W21271   6.117  10.048  16.359  0.0294  0.0459  0.1683
17674W        W21272   9.003   8.509  15.423  0.0924 -0.2172  0.1026
17675W        W21273   8.591  15.149   8.701 -0.0725  0.4724  0.1964
17676W        W21274   3.449  10.242  14.644 -0.2758  0.0483  0.1201
17677W        W21275   1.142   7.407   7.513 -0.0776  0.1910 -0.2052
17678W        W21276   3.162   4.226  11.608 -0.1024  0.0924  0.0561
17679W        W21277  11.647   9.683   5.884 -0.0892  0.2415  0.4338
17680W        W21278   9.705  12.867  10.187  0.1712 -0.0049 -0.0491
17681W        W21279   7.171   4.325  10.745 -0.0991 -0.0551  0.0155
17682W        W21280  12.725   0.607  10.290  0.1438  0.2771  0.0245
17683W        W21281  12.799   1.970   0.714  0.1906 -0.2000 -0.0855
17684W        W21282   5.155  12.779  12.780  0.1982  0.4971 -0.1576
17685W        W21283  12.620   2.274  15.387  0.0577  0.2272 -0.1462
17686W        W21284   9.558   2.192   6.755  0.0622  0.1758 -0.1805
17687W        W21285  13.883  15.548  10.782 -0.2857 -0.2580  0.1826
17688W        W21286  13.865  12.475  12.525  0.0873 -0.2881  0.1421
17689W        W21287   2.320  13.769  14.303  0.1447  0.0546 -0.0625
17690W        W21288  14.467   1.334   1.322  0.2773 -0.0691  0.0300
17691W        W21289   5.796  12.500   5.455  0.2204  0.0031  0.2604
17692W        W21290  12.775  13.522  13.363 -0.1700  0.0846 -0.2066
17693W        W21291   2.458  14.934   5.579 -0.0056 -0.4202  0.1460
17694W        W21292  10.048  15.583  13.044  0.0885 -0.0314 -0.1902
17695W        W21293   4.765  11.141   4.227 -0.0543  0.1093 -0.1925
17696W        W21294  12.345   0.101   8.042  0.1091  0.1143  0.1992
17697W        W21295   3.013  13.827   9.347 -0.2877 -0.1019 -0.1645
17698W        W21296   2.736   8.437   8.271  0.2611 -0.1116  0.0815
17699W        W21297   1.635  10.168   4.476 -0.0453 -0.4105  0.1363
17700W        W21298   4.531   3.522   4.891 -0.0949  0.0398 -0.0678
17701W        W21299   0.026  14.354  14.355  0.0999  0.1765 -0.0276
17702W        W21300   1.279  16.340   4.429  0.2478 -0.0691 -0.1961
17703W        W21301  10.736  12.432   5.583 -0.0290 -0.1127 -0.2191
17704W        W21302  14.294  10.023  10.469 -0.1236 -0.3563  0.2725
17705W        W21303   6.708   7.341   6.090 -0.1335 -0.0522 -0.3927
17706W        W21304  12.365  13.405   5.104 -0.0811  0.3580 -0.1813
17707W        W21305  12.683   1.294  14.200 -0.2290  0.3464  0.1442
17708W        W21306  11.970  14.272  12.510 -0.0359 -0.0583  0.0586
17709W        W21307  14.248   9.197  10.925 -0.3825 -0.0491  0.2340
17710W        W21308   3.970   8.832  12.234 -0.1514  0.0174  0.0381
17711W        W21309  12.367  16.150   3.043  0.1416 -0.1705 -0.0814
17712W        W21310  11.768   3.319  12.402 -0.0461 -0.1070  0.1548
17713W        W21311  15.073   2.413  14.470  0.0105  0.0679  0.1505
17714W        W21312  10.888  13.576   7.112  0.1458  0.4256 -0.1589
17715W        W21313  13.207   5.912  11.935  0.2002 -0.0285 -0.1828
17716W        W21314   6.669   9.482   7.497  0.0427  0.0393  0.0425
17717W        W21315   8.554   3.063   0.622  0.0447 -0.1951  0.2884
17718W        W21316   1.338  13.146   6.216 -0.0586  0.0799  0.1108
17719W        W21317   9.866   6.229   0.613 -0.2273 -0.0429 -0.0554
17720W        W21318  10.803   3.211  13.776 -0.1356 -0.0536 -0.0694
17721W        W21319  13.363   1.926  14.402 -0.0181 -0.2504  0.0550
17722W        W21320   0.893   0.772   5.340 -0.1830  0.1031  0.0500
17723W        W21321  11.419   1.000  15.508 -0.1600 -0.0591 -0.2126
17724W        W21322   2.234   9.450  15.242 -0.0152  0.0257  0.0110
17725W        W21323   5.959   0.997   1.811 -0.2306  0.1990 -0.0787
17726W        W21324  15.595   7.753  13.655  0.0047  0.0217  0.0377
17727W        W21325   6.320  12.128   6.265 -0.1095  0.3429  0.2371
17728W        W21326   9.609   3.453   8.268 -0.0283 -0.1207  0.0260
17729W        W21327   2.513   6.870  12.099  0.5394 -0.0675  0.1002
17730W        W21328  11.098   8.584  12.777  0.0112  0.0638  0.1567
17731W        W21329  13.164   6.602   1.543  0.2458  0.0852 -0.0665
17732W        W21330   7.257  11.181  10.420 -0.2160  0.1276  0.3702
17733W        W21331  12.222   0.797   1.275  0.0151  0.1322 -0.0122
17734W        W21332   7.448  11.832   1.183  0.1176  0.0534 -0.0978
17735W        W21333  13.215   0.597   5.391 -0.1075 -0.1708 -0.0105
17736W        W21334  16.209   5.566   3.728 -0.3368 -0.0803 -0.0683
17737W        W21335   9.851  15.566   8.977  0.3937 -0.1904  0.0580
17738W        W21336  15.850  13.134   8.193  0.0891 -0.1447 -0.0445
17739W        W21337   6.593  14.787   2.011 -0.5515 -0.1043 -0.2401
17740W        W21338  15.054   2.698  13.612  0.0432  0.3743  0.3485
17741W        W21339   7.367   0.604  10.064 -0.4119  0.0112  0.3474
17742W        W21340   7.869   6.864  13.695  0.1534  0.3866  0.1729
17743W        W21341  16.321   8.120   9.577 -0.0516  0.0973 -0.2384
17744W        W21342  16.107  14.007   9.903  0.1542 -0.3199 -0.0362
17745W        W21343  11.471   1.011   5.835  0.0138  0.2169 -0.4156
17746W        W21344   5.115   6.058  10.304 -0.0544  0.0258 -0.0346
17747W        W21345  11.577   7.073  13.983 -0.4271 -0.0484 -0.1744
17748W        W21346  11.615   9.095   8.626 -0.1236  0.4254  0.2558
17749W        W21347  15.721   9.154   1.417 -0.0107 -0.1278 -0.1485
17750W        W21348   3.205   4.006   1.487 -0.3246 -0.0498  0.0175
17751W        W21349  12.188   2.332   0.344 -0.2699 -0.1224  0.1949
17752W        W21350   6.153   5.773   9.748  0.2428  0.0896 -0.0253
17753W        W21351   7.446  13.245  13.792 -0.2711  0.2183 -0.2588
17754W        W21352  13.122   0.436   7.732  0.0577 -0.1055  0.2947
17755W        W21353   1.260   6.129   6.310 -0.0669  0.0520 -0.3957
17756W        W21354   5.826  13.991   0.347 -0.0697  0.1698  0.2639
17757W        W21355  14.840   5.824  10.905 -0.3484  0.2951 -0.0790
17758W        W21356   1.247  10.401  16.321  0.0269 -0.3291  0.1342
17759W        W21357  10.650   8.076   9.515  0.0679 -0.0827 -0.0027
17760W        W21358   2.540   0.798  14.985 -0.0506  0.1532 -0.0942
17761W        W21359   8.901  13.335  12.996 -0.5214 -0.3373  0.2637
17762W        W21360   0.575   4.707  15.308 -0.2168 -0.0365  0.0728
17763W        W21361   0.025   9.648  12.053 -0.3037  0.5497  0.3407
17764W        W21362   4.258   4.983  14.842  0.1265 -0.0690  0.0278
17765W        W21363   3.286  10.119   9.455 -0.0552  0.1767  0.2529
17766W        W21364  13.054   5.914   1.804 -0.4269  0.0050  0.0994
17767W        W21365   7.528  15.890   8.563  0.0459 -0.0632  0.0939
17768W        W21366   6.537  11.604  15.508 -0.1355 -0.0728  0.3022
17769W        W21367  14.079   7.519   4.804  0.1480 -0.1051  0.0360
17770W        W21368   6.669  15.343  12.707 -0.1802  0.1286 -0.2724
17771W        W21369   4.960  13.073   2.648  0.3872 -0.1545  0.2060
17772W        W21370  11.566   2.454   4.604 -0.1229 -0.1647  0.0376
17773W        W21371  11.191   3.088  14.688 -0.1292 -0.3359 -0.2363
17774W        W21372   2.356   9.696   5.097  0.2021 -0.1109  0.0730
17775W        W21373   6.231  14.103  12.504 -0.1332  0.3659 -0.0664
17776W        W21374   8.883   9.949  13.426 -0.1248  0.0959 -0.0570
17777W        W21375  12.319   0.077  13.568 -0.2282 -0.1681 -0.2608
17778W        W21376  12.587   9.779   0.270  0.1099  0.2784  0.1492
17779W        W21377  12.877  13.528  15.315 -0.0595 -0.0999 -0.1185
17780W        W21378   3.808  11.739  10.021  0.1098  0.1313 -0.1728
17781W        W21379   2.972   1.912  15.881  0.2318 -0.1130  0.0544
17782W        W21380   5.057  15.400   5.459  0.0281 -0.1349 -0.0348
17783W        W21381   3.519   3.474   1.937  0.1289 -0.1507  0.0484
17784W        W21382  15.270  12.612  15.719  0.3605 -0.2509  0.4195
17785W        W21383   3.419   0.777  14.473 -0.1368 -0.1665  0.2892
17786W        W21384   8.370  14.920   6.517  0.1258 -0.1788  0.1729
17787W        W21385  15.763  15.400  14.638  0.2649 -0.2694  0.0500
17788W        W21386   1.983   5.058  14.573  0.1185  0.1604 -0.1405
17789W        W21387   7.290  14.219   7.131 -0.1599 -0.0260  0.1695
17790W        W21388  11.323   4.877   1.730  0.0247 -0.3401  0.2503
17791W        W21389   5.096   5.317  11.565  0.0175 -0.1280  0.0553
17792W        W21390   2.811   7.832  14.984  0.1967  0.0007  0.0654
17793W        W21391   3.867   1.581  15.755 -0.1032 -0.1108  0.0701
17794W        W21392   5.130   3.388   7.012  0.1423  0.2765  0.0629
17795W        W21393  10.922   9.432  10.460 -0.2572 -0.2454  0.1339
17796W        W21394  10.728   2.940  10.406  0.3010 -0.3581 -0.3222
17797W        W21395  11.085  11.597  10.389 -0.1541  0.2253  0.3343
17798W        W21396  13.704   7.916   4.818 -0.1943  0.3010  0.1140
17799W        W21397   0.229   6.613   9.746  0.2477 -0.0070 -0.0429
17800W        W21398   7.600  12.788  14.440  0.1990 -0.0370  0.1263
17801W        W21399   8.433  14.161   8.824  0.3655  0.1406  0.0253
17802W        W21400  14.699   5.926  15.390 -0.2137 -0.0271 -0.0090
17803W        W21401   9.787  13.303  11.328 -0.0288  0.0680  0.1062
17804W        W21402   9.870   1.383  13.119 -0.2177 -0.1016 -0.2671
17805W        W21403  12.551  10.111   6.885 -0.0329  0.0271 -0.1353
17806W        W21404   9.381  10.252  12.442  0.2671 -0.0621  0.1465
17807W        W21405   8.836  15.154   5.120  0.3286  0.0612 -0.0140
17808W        W21406  15.608   1.590   8.008  0.0447 -0.1028  0.1359
17809W        W21407   1.118  11.277   5.537 -0.2380  0.0252 -0.3176
17810W        W21408   3.774  13.387   4.547  0.1757  0.0627 -0.1087
17811W        W21409  12.992  15.028  14.898  0.1901 -0.0931 -0.1855
17812W        W21410   2.028   6.740   2.099 -0.1243  0.0780  0.0202
17813W        W21411   5.471   6.775   5.864 -0.3468 -0.0925  0.0416
17814W        W21412   2.453   8.274   6.940 -0.2594  0.1809  0.3406
17815W        W21413  14.813   4.636  14.131  0.2102 -0.1839  0.1552
17816W        W21414  15.920  12.850   9.848 -0.1363 -0.1707 -0.2153
17817W        W21415   4.956  12.552   8.254  0.1718 -0.1513  0.1577
17818W        W21416   9.227   9.571  13.032  0.2371 -0.1309 -0.4702
17819W        W21417  12.068   1.961  12.339  0.1835 -0.1487 -0.1461
17820W        W21418  16.137  13.434   6.947  0.2959  0.1466  0.2042
17821W        W21419   2.978  13.484   8.864  0.1503 -0.1614 -0.2740
17822W        W21420  13.841   6.952   7.185 -0.0078  0.1659  0.2308
17823W        W21421   4.026   9.900   5.001 -0.5244 -0.1958 -0.0181
17824W        W21422  10.149   7.658  15.894 -0.0374  0.2703 -0.2586
17825W        W21423   2.734   2.926   6.124 -0.3420  0.1355 -0.0011
17826W        W21424   0.550  11.129  15.605 -0.1421 -0.2368 -0.1307
17827W        W21425   6.742   8.476   4.600 -0.0629  0.0618 -0.0879
17828W        W21426  12.499   5.827   6.551  0.3179 -0.0453  0.0138
17829W        W21427  15.978  11.719   6.538  0.1710  0.0763 -0.0628
17830W        W21428  13.640   7.203  11.248  0.1189 -0.0769 -0.0701
17831W        W21429   0.539   6.719  11.780 -0.3277  0.1436  0.0543
17832W        W21430   1.080   1.651   2.527 -0.1757 -0.0259  0.0783
17833W        W21431  10.121   0.163   5.366 -0.0235  0.0804 -0.1336
17834W        W21432   4.228  12.324   0.825  0.0295  0.0294 -0.5179
17835W        W21433  10.474  11.607   5.944 -0.1680  0.1435  0.0578
17836W        W21434  10.293   9.308   7.603  0.1197  0.0063 -0.1996
17837W        W21435  10.174  15.097  10.280 -0.1519 -0.0699 -0.0949
17838W        W21436  15.968   5.754  13.103  0.1002 -0.1859  0.0320
17839W        W21437   1.287   5.136  12.511 -0.1320 -0.1849 -0.1296
17840W        W21438   4.893   6.320   5.566 -0.1657  0.4068 -0.0320
17841W        W21439  10.093   6.474   6.589  0.2400 -0.3328 -0.1917
17842W        W21440   1.716   0.566  13.451 -0.1233  0.2111  0.2237
17843W        W21441  15.368   3.321   4.589 -0.1832 -0.1203 -0.0609
17844W        W21442   4.232  12.535  13.189 -0.1663 -0.0920  0.0171
17845W        W21443   7.964  14.683   8.004  0.1555  0.1443 -0.2630
17846W        W21444  11.279  15.455   7.118  0.1685  0.0817  0.3341
17847W        W21445   4.719   3.040   0.415 -0.1440  0.0725 -0.0253
17848W        W21446  14.710  14.990   2.893 -0.3371  0.1445  0.0291
17849W        W21447   9.068   7.441   4.671  0.4438  0.1850  0.1585
17850W        W21448  10.792   0.475   4.943  0.1259 -0.0924 -0.0222
17851W        W21449   9.930   1.770   2.557 -0.0779 -0.2981  0.1154
17852W        W21450   3.855  14.648  14.759  0.1775  0.0491  0.0777
17853W        W21451  13.126   2.641  16.389 -0.2558 -0.0897  0.2714
17854W        W21452   1.961   2.957   9.075 -0.3060  0.1346  0.0926
17855W        W21453   8.690   2.201   6.401  0.2932  0.0774 -0.1738
17856W        W21454  13.762   6.603   3.146  0.1509 -0.1144 -0.0798
17857W        W21455   9.710   6.837   0.718 -0.1860  0.0454  0.1081
17858W        W21456   3.593   8.155   9.828 -0.0150 -0.1677  0.2491
17859W        W21457  13.239  13.667   7.361 -0.1662  0.0429  0.1565
17860W        W21458   5.362  12.767   5.330 -0.1240  0.0861  0.0313
17861W        W21459  14.928   6.463   3.265  0.2103  0.3556 -0.4313
17862W        W21460   6.801  10.904  10.723  0.0686 -0.1649 -0.0852
17863W        W21461  14.259  10.284  14.488  0.3411  0.0382 -0.0754
17864W        W21462   8.771  13.227   4.175 -0.3623 -0.1908 -0.0781
17865W        W21463  10.637   4.463   4.510  0.0295 -0.1611 -0.1511
17866W        W21464  12.600   1.181   4.133  0.1944  0.0493 -0.1675
17867W        W21465   7.312  11.248   7.398  0.1293 -0.1712  0.2245
17868W        W21466  14.848  13.967   1.960  0.0865  0.3402  0.2858
17869W        W21467   6.548   6.631   3.447  0.1071  0.1260 -0.1986
17870W        W21468   3.426  14.838   7.896 -0.2349  0.1914  0.0163
17871W        W21469   7.604  10.364   2.348 -0.0913  0.1086  0.0625
17872W        W21470  12.537   4.701  10.174 -0.0961 -0.2138 -0.1558
17873W        W21471  14.848   8.332   9.503  0.2416 -0.0346 -0.2793
17874W        W21472  11.973   6.545   0.672  0.2537  0.2281 -0.1508
17875W        W21473   7.732  11.052   3.525 -0.1264  0.1481  0.2540
17876W        W21474   9.472   3.646  14.117 -0.2749  0.1945  0.0858
17877W        W21475  13.537   9.568  10.031  0.1546 -0.0311 -0.1334
17878W        W21476   6.591  15.547   0.766 -0.0119  0.0239 -0.0710
17879W        W21477   9.063   2.767  10.943 -0.4032  0.3565  0.4310
17880W        W21478   1.434  13.200   7.874  0.0213 -0.0905 -0.0919
17881W        W21479  11.211   5.175   6.360 -0.2885  0.1650 -0.2342
17882W        W21480   9.796   4.867  16.019  0.3335 -0.1563  0.1578
17883W        W21481   4.387  10.342   9.401 -0.1200 -0.1436 -0.1841
17884W        W21482  12.588   4.676  10.971 -0.1063 -0.0476 -0.0401
17885W        W21483  16.042   5.727  13.893  0.2221  0.1024  0.0361
17886W        W21484  15.886   3.579   9.002  0.0170 -0.1675  0.0771
17887W        W21485   2.613   6.467  15.496 -0.3026  0.0632  0.1102
17888W        W21486   3.977   9.274   9.422  0.0559 -0.1199 -0.0485
17889W        W21487   2.207   1.513   0.577  0.2946 -0.0993 -0.2586
17890W        W21488   0.544   5.442  13.644 -0.3258 -0.0944  0.0020
17891W        W21489  12.723  12.571   1.652  0.0941 -0.4083  0.0682
17892W        W21490   6.845   0.557   8.728 -0.2842  0.0165 -0.1322
17893W        W21491   0.392  15.574   3.921  0.0008 -0.1059  0.1112
17894W        W21492   1.666   3.628   6.691  0.3187  0.0681  0.1609
17895W        W21493   3.870  16.001  12.325 -0.0858  0.0286  0.3554
17896W        W21494   9.511   2.666   4.188 -0.0025  0.0550 -0.2046
17897W        W21495   3.414  13.220  12.464 -0.1781 -0.1103  0.0602
17898W        W21496   6.315  14.448   5.857 -0.2134  0.0459  0.0638
17899W        W21497   0.423  12.800   2.197 -0.1046  0.1989  0.0379
17900W        W21498  10.530  12.575   9.803 -0.2149 -0.2008  0.2089
17901W        W21499   5.808   6.011   3.194 -0.2766  0.2020  0.5199
17902W        W21500   1.011  10.575   7.074 -0.2773 -0.0601 -0.1834
17903W        W21501  14.931  11.748   0.235 -0.2850 -0.1799  0.3067
17904W        W21502   0.984   1.205  10.031  0.1938 -0.0780  0.3175
17905W        W21503   9.493   7.104   8.076  0.3762  0.1368 -0.1394
17906W        W21504  12.606  10.392   1.697  0.3237 -0.0899 -0.0369
17907W        W21505   8.456   3.627  12.454 -0.1524  0.0424 -0.0151
17908W        W21506   7.015  15.243   5.067  0.3605 -0.1041 -0.2445
17909W        W21507  11.214  16.034  13.239  0.1576 -0.2551  0.0600
17910W        W21508   8.640  12.873  10.905 -0.0603 -0.1816 -0.1481
17911W        W21509   7.596   1.473  15.792  0.2291 -0.1017  0.1680
17912W        W21510   0.553  14.030  12.535 -0.0885 -0.3269  0.0391
17913W        W21511  11.159   1.361   9.699  0.2358  0.2254  0.1328
17914W        W21512  12.024  12.018  11.943 -0.1116  0.2195  0.1967
17915W        W21513  11.111  10.778   4.110 -0.2789 -0.2630 -0.1702
17916W        W21514   5.369   8.008   0.319 -0.1293  0.0750  0.1141
17917W        W21515   1.972   5.561   4.221  0.1230 -0.0417  0.1630
17918W        W21516  13.561   8.060   3.394 -0.1142 -0.0578 -0.0136
17919W        W21517   5.802  12.230   6.288 -0.1455 -0.1199 -0.1101
17920W        W21518   2.326   1.035  10.383 -0.3467 -0.2226 -0.1543
17921W        W21519  11.877   4.560   0.671 -0.1833 -0.2818 -0.1158
17922W        W21520   4.829  13.731   8.678  0.1850 -0.2152 -0.0054
17923W        W21521  10.553   4.005   4.870 -0.2212 -0.0660 -0.0235
17924W        W21522  10.134   1.731   3.540 -0.0365  0.0816 -0.0714
17925W        W21523   7.009   3.151  12.492  0.2540  0.2354  0.3984
17926W        W21524   6.537  15.645  14.285 -0.1755  0.0839  0.0067
17927W        W21525   4.435  10.190   4.176 -0.0105  0.3977  0.1564
17928W        W21526   7.798  12.945   4.158  0.0294  0.1446 -0.0482
17929W        W21527   3.520   7.994  10.736 -0.2909  0.1997 -0.1693
17930W        W21528   5.181  14.374  13.647 -0.3640  0.0240 -0.0864
17931W        W21529   3.088  14.385  14.476 -0.1459  0.0019 -0.1125
17932W        W21530  15.799  15.306  11.184 -0.2138 -0.0039  0.0395
17933W        W21531   8.038   1.784  12.017 -0.2280 -0.2297 -0.1086
17934W        W21532   9.483   4.348   8.572  0.0102 -0.1846  0.1331
17935W        W21533   3.687   6.611  10.673 -0.0644 -0.0154 -0.2018
17936W        W21534   7.154   5.404  11.956 -0.1772 -0.1573 -0.0698
17937W        W21535  13.151   0.634  11.035  0.0841 -0.1294  0.0219
17938W        W21536   0.904  15.144  10.996 -0.3202 -0.1492 -0.0554
17939W        W21537   7.778  12.229   5.334 -0.1402  0.0386 -0.1142
17940W        W21538  11.417   5.145   6.786 -0.0597 -0.2972 -0.0116
17941W        W21539   2.088  15.078   0.592 -0.1596  0.1554  0.2302
17942W        W21540  15.911   8.461   7.874 -0.0280  0.1759 -0.0461
17943W        W21541  12.005   6.995   0.032 -0.0144  0.2074 -0.0126
17944W        W21542   6.757  15.314  12.192 -0.2795 -0.0107 -0.1766
17945W        W21543  15.728  13.544   1.321 -0.0381 -0.1529  0.0809
17946W        W21544  15.397   9.008   6.006 -0.1590 -0.1277  0.0553
17947W        W21545  11.422  14.162   1.054 -0.1055  0.0843 -0.3102
17948W        W21546   1.875   0.581   4.641  0.1800  0.0490  0.1813
17949W        W21547   6.480  10.109  12.087  0.1854  0.1237 -0.4457
17950W        W21548   5.392   9.577  13.902  0.0109 -0.0035 -0.4756
17951W        W21549   8.647  11.774   3.111  0.1228  0.0297 -0.0823
17952W        W21550   5.494   1.838  12.985 -0.1079  0.0940  0.0337
17953W        W21551   0.847  12.194  13.850  0.0731  0.2865  0.2049
17954W        W21552  13.412  10.097   4.954 -0.2617  0.0793 -0.0709
17955W        W21553   7.390  12.708   3.968  0.0232 -0.2006 -0.1067
17956W        W21554   5.254  15.268   4.123 -0.1634 -0.1031  0.2128
17957W        W21555  10.714  12.644  15.866  0.0075 -0.2699  0.3005
17958W        W21556  14.026   7.566  11.330  0.0951  0.1575 -0.1392
17959W        W21557   5.682  15.801   5.058  0.0182  0.1208  0.0468
17960W        W21558  12.670   2.374   1.467 -0.0245 -0.0435 -0.1843
17961W        W21559   6.684   5.679  11.671 -0.0866 -0.1140  0.3150
17962W        W21560  16.036  10.478   7.721 -0.2950 -0.2718 -0.0975
17963W        W21561  14.560   3.251   3.028 -0.0639  0.1099 -0.1874
17964W        W21562   6.780   4.976  13.226  0.2201  0.3388  0.1965
17965W        W21563   6.457   6.430   8.641 -0.0940  0.1550 -0.0055
17966W        W21564   1.516   6.583   9.097 -0.0894  0.0859 -0.0030
17967W        W21565   7.498  15.616   4.722  0.0943 -0.3034  0.2012
17968W        W21566  10.282   3.069   6.252 -0.2585 -0.0674 -0.1681
17969W        W21567   6.238  13.410   2.605 -0.2314 -0.2401 -0.2219
17970W        W21568   7.632   5.211   0.153  0.3425 -0.0513 -0.3304
17971W        W21569  13.299   3.373   4.728 -0.0372  0.1056  0.1305
17972W        W21570   5.315  11.000  14.589 -0.1959 -0.1904  0.0443
17973W        W21571   0.676   2.937   0.022  0.0756 -0.0792  0.0662
17974W        W21572   8.708  15.900   4.637  0.0295 -0.2849 -0.0155
17975W        W21573  14.608   1.454  12.943  0.1658 -0.2008 -0.0178
17976W        W21574   7.923  14.444   4.709  0.0140 -0.2210 -0.0581
17977W        W21575   4.725   3.781   1.821 -0.1031 -0.2640 -0.1919
17978W        W21576  13.441   6.263   7.805 -0.3590  0.0494  0.0065
17979W        W21577   0.512   7.755   8.509 -0.1556  0.1015  0.2250
17980W        W21578  14.692   5.723   4.018 -0.0533 -0.0438 -0.3719
17981W        W21579   5.322   5.573  14.344 -0.0112  0.4218 -0.3014
17982W        W21580   2.408  14.493   4.268  0.3390  0.1366 -0.0302
17983W        W21581  10.305   6.481  15.264 -0.1549  0.1235  0.3318
17984W        W21582  14.176   9.024   8.950  0.0470 -0.1162  0.1415
17985W        W21583   0.100   7.573  14.740 -0.2591 -0.0103 -0.5016
17986W        W21584   5.434   8.286  15.254 -0.3123  0.1598 -0.1771
17987W        W21585   5.085   1.931  11.243  0.0930  0.1520 -0.0334
17988W        W21586  13.458  14.002  13.563  0.0714  0.3102 -0.0900
17989W        W21587   5.322  13.314  15.703 -0.1728 -0.0756  0.0824
17990W        W21588   7.343  12.132   0.676 -0.0850  0.0730  0.2128
17991W        W21589   5.880  12.647   8.636 -0.1426  0.1832 -0.3120
17992W        W21590   3.337   4.035   9.798  0.0745 -0.3025  0.0338
17993W        W21591  14.825  12.045   7.997  0.2270 -0.1060  0.0418
17994W        W21592   0.639  11.279  14.227  0.1514  0.2598  0.1126
17995W        W21593  13.416   5.802   7.255 -0.2855  0.0243  0.2974
17996W        W21594   7.052  11.837  15.791  0.2371  0.0726  0.1135
17997W        W21595  15.064   5.790   0.186 -0.0016  0.1003 -0.1352
17998W        W21596  14.435   1.566   6.772  0.0456 -0.1065  0.1636
17999W        W21597   9.018  12.587  10.658  0.0647 -0.2874 -0.1231
18000W        W21598   7.592   3.073   8.807  0.2027 -0.1052  0.1073
18001W        W21599   3.015   1.021  11.074 -0.2671 -0.0805  0.1078
18002W        W21600   2.358   0.492   6.836  0.0867 -0.1399 -0.0130
18003W        W21601  15.084   5.020   8.629 -0.0472 -0.0091 -0.0741
18004W        W21602  15.468  10.908  15.651  0.1000 -0.0994  0.1169
18005W        W21603  15.913   6.405   7.287 -0.0251 -0.0727 -0.3563
18006W        W21604  11.231   4.683   3.715 -0.0652 -0.1739  0.0090
18007W        W21605   0.863   6.584   4.281  0.2480  0.0286 -0.1256
18008W        W21606   3.511   8.598  11.669  0.1718 -0.0011  0.0843
18009W        W21607  15.360   5.822  14.405  0.0724 -0.0339  0.2156
18010W        W21608   5.734   0.472   7.237  0.1236  0.1105  0.1910
18011W        W21609  14.517   4.583  10.678 -0.1706 -0.1542 -0.0385
18012W        W21610   3.193   6.837   6.192  0.0672  0.1636 -0.1869
18013W        W21611   3.900   3.091   3.318 -0.1280  0.1429 -0.2244
18014W        W21612   2.593  10.599   7.103 -0.0944  0.0921  0.0247
18015W        W21613  12.341   1.002   3.220 -0.2263 -0.0621  0.2019
18016W        W21614  15.580   9.441   1.841  0.0454  0.2534 -0.0064
18017W        W21615   9.885   3.962  11.390 -0.2020  0.0222 -0.0564
18018W        W21616  12.519  15.090   2.732 -0.1347 -0.2769 -0.3648
18019W        W21617   2.338   3.372   0.405  0.2888 -0.1139 -0.1016
18020W        W21618   7.222   8.552   6.439 -0.1705  0.2835  0.3573
18021W        W21619  11.298   6.120  11.854  0.0088 -0.1018 -0.3985
18022W        W21620   2.911  15.137   3.802  0.2340  0.0369  0.3108
18023W        W21621   8.863   6.622  12.628 -0.2254 -0.1150  0.2378
18024W        W21622   3.448   2.102  15.883 -0.1494  0.1066  0.2417
18025W        W21623   0.201  13.285   8.717  0.0348 -0.1533  0.1884
18026W        W21624   0.865   2.223   8.412 -0.0851 -0.2270 -0.1436
18027W        W21625   0.750  10.363  10.537  0.1704  0.1986  0.1960
18028W        W21626  15.951   8.572  14.720  0.0494  0.1815  0.1719
18029W        W21627   3.355  12.284   8.620  0.2022 -0.1253 -0.1862
18030W        W21628  14.417   8.897  14.103  0.0596 -0.4039 -0.0302
18031W        W21629   5.016  14.625   5.807 -0.1022  0.0336  0.1638
18032W        W21630   3.403  12.172  14.505  0.2111  0.5893 -0.2657
18033W        W21631  12.081  14.936   2.403  0.0658  0.0235 -0.0430
18034W        W21632   0.540   8.762   7.490  0.0866  0.2561  0.3112
18035W        W21633   9.007   3.752   4.921 -0.2432 -0.1228 -0.2762
18036W        W21634   7.831   8.955   9.257  0.2540  0.1248  0.2450
18037W        W21635  14.900  13.413  12.471 -0.1650 -0.0090  0.3144
18038W        W21636   5.449  14.008  12.880 -0.0549  0.1461 -0.0690
18039W        W21637   4.064   9.575   3.693 -0.3373 -0.1996 -0.1150
18040W        W21638   9.982  14.589   2.726 -0.1285  0.2165 -0.1244
18041W        W21639   9.149   3.400   3.435 -0.0726  0.3184  0.0374
18042W        W21640   9.065   3.082   0.860 -0.1618 -0.0856 -0.1805
18043W        W21641  11.859  11.288   8.339 -0.2578  0.0752  0.1822
18044W        W21642   7.780   1.820   8.826  0.2327  0.1604 -0.2062
18045W        W21643  15.257   5.302  13.547  0.1352 -0.4229 -0.1639
18046W        W21644   9.629   1.927   8.088 -0.2338  0.2467 -0.2355
18047W        W21645  15.351  10.542   9.616 -0.1163 -0.0845 -0.0862
18048W        W21646  12.954  10.013   8.802 -0.3977  0.1860  0.1524
18049W        W21647   2.531  15.896   4.472  0.1607  0.1580  0.0496
18050W        W21648   4.028   2.330   4.891  0.2022 -0.0779  0.0070
18051W        W21649  14.374   1.253   7.281 -0.1793  0.0043 -0.2132
18052W        W21650   2.666   9.791   0.577  0.4345 -0.2814  0.0091
18053W        W21651  15.231  14.514  13.813 -0.1325 -0.2771  0.1489
18054W        W21652   4.462   3.450   8.651 -0.4154 -0.0240 -0.2028
18055W        W21653   9.069  13.807  16.276  0.1606  0.1163 -0.1511
18056W        W21654  16.276  15.216   8.302  0.1197  0.0890 -0.2678
18057W        W21655   5.593   4.215   7.079  0.4475 -0.0601  0.2049
18058W        W21656   5.001  13.760  12.850 -0.1948  0.0660 -0.0953
18059W        W21657   9.689  14.637   2.299  0.0531 -0.3691  0.1699
18060W        W21658  10.273   6.688   9.880  0.0633  0.1113 -0.2934
18061W        W21659  12.928  10.454  12.027 -0.0164 -0.2886  0.1277
18062W        W21660   1.119   5.441   0.577  0.2615  0.2738 -0.0965
18063W        W21661  10.846   8.311  11.070 -0.0219  0.0001 -0.0198
18064W        W21662   4.090   5.772   9.764 -0.0260 -0.0872  0.1449
18065W        W21663   1.655   7.751   9.017 -0.3495  0.1234  0.1431
18066W        W21664   3.724   8.182  11.517  0.0047 -0.1405 -0.0337
18067W        W21665  12.301   0.449   0.706 -0.0600  0.3521 -0.1016
18068W        W21666   9.365  13.226   2.522  0.0919 -0.2935  0.2175
18069W        W21667   7.659   0.771   4.633  0.0688 -0.1010 -0.3620
18070W        W21668   1.485   0.318   3.097  0.2522  0.0889 -0.2551
18071W        W21669  11.814   8.288  11.920 -0.0690  0.1071 -0.0763
18072W        W21670   2.571   0.845  12.250 -0.2699 -0.1776 -0.3485
18073W        W21671  14.668   1.518   1.760 -0.0969  0.3800  0.2056
18074W        W21672   3.088  15.687   4.483  0.1634  0.0893 -0.1508
18075W        W21673   6.046  13.170  10.382  0.0860 -0.0146 -0.1977
18076W        W21674   8.335   7.653   3.111 -0.1040  0.1582  0.1523
18077W        W21675  11.356   7.028   5.663 -0.2676 -0.2131  0.1826
18078W        W21676  12.851   3.843  10.751 -0.0407  0.1135 -0.1691
18079W        W21677   4.172  13.818   0.906  0.0467  0.1087  0.0830
18080W        W21678  13.329   2.769  11.428  0.0645 -0.3595  0.0488
18081W        W21679  16.251   5.970   6.237 -0.3217 -0.1633  0.2920
18082W        W21680  15.348   8.239   5.325  0.3946  0.1436 -0.0523
18083W        W21681   6.524   8.614  11.061 -0.1496  0.2114  0.0836
18084W        W21682   4.706  15.663   2.514  0.0331 -0.2685  0.3949
18085W        W21683  12.917   8.114   7.090 -0.0371  0.1554 -0.0155
18086W        W21684  14.643   4.433   5.448 -0.0559 -0.1153 -0.0377
18087W        W21685  14.402   9.637  11.094 -0.2518 -0.1505  0.1469
18088W        W21686  16.040  14.720   3.143  0.1762  0.0876 -0.1509
18089W        W21687   6.955   3.846   8.493  0.1219  0.1222 -0.0287
18090W        W21688   8.654   2.770   6.661  0.1487 -0.0265 -0.1189
18091W        W21689   0.318   1.172   9.449 -0.0752 -0.2566 -0.1869
18092W        W21690   9.950   9.008  14.000 -0.2203  0.1435 -0.2901
18093W        W21691   1.709  15.030   3.641 -0.3707  0.0385  0.0678
18094W        W21692  15.968   9.777  11.074 -0.1655 -0.1805  0.3776
18095W        W21693   8.891   9.203   8.461 -0.2349  0.1976 -0.3017
18096W        W21694  11.201  14.482  12.205  0.1572  0.0814 -0.0838
18097W        W21695   6.510   1.161   3.246  0.2335  0.1423  0.0669
18098W        W21696   8.833  14.362  14.716  0.0307  0.1332  0.0593
18099W        W21697   0.179   9.044   1.770 -0.1027 -0.2140 -0.0380
18100W        W21698   7.561   1.024  11.789  0.5172 -0.0080 -0.0248
18101W        W21699   8.907  12.204  11.046 -0.0886  0.2756 -0.1216
18102W        W21700   2.024   5.945   2.976 -0.0247 -0.1073 -0.0476
18103W        W21701   4.753   0.323   2.213 -0.0423  0.3953 -0.1672
18104W        W21702   5.366   0.701  10.573  0.0698  0.1335  0.1053
18105W        W21703  15.825   9.052  13.908 -0.2010 -0.1825 -0.2380
18106W        W21704   7.212   7.376   4.424 -0.0908 -0.0643  0.0759
18107W        W21705   2.665   4.225  14.174 -0.0103  0.4511  0.0754
18108W        W21706   3.888   0.759  10.073 -0.0198 -0.0307  0.0628
18109W        W21707  14.421  10.649   9.976 -0.0065 -0.2125  0.1044
18110W        W21708   3.869   9.617  14.021 -0.2638 -0.2353 -0.2672
18111W        W21709  11.511   9.174   9.163  0.1578 -0.0679 -0.0558
18112W        W21710  14.751   6.024  11.672  0.1787 -0.0528  0.1639
18113W        W21711   5.367  10.005   5.188 -0.2526 -0.2447  0.0316
18114W        W21712  12.737  10.888   3.312 -0.2495 -0.1011 -0.1452
18115W        W21713  16.076   4.339  16.219  0.1981  0.3459  0.3821
18116W        W21714   6.932   4.990   2.116 -0.2854 -0.0157 -0.0370
18117W        W21715   2.126  16.190  14.081 -0.1796 -0.1807  0.2057
18118W        W21716   3.412  15.411   3.521 -0.1625 -0.2038  0.0207
18119W        W21717   1.733  11.595   0.219  0.2125 -0.1782  0.0828
18120W        W21718   8.975   4.181   4.157 -0.0581  0.2091 -0.0582
18121W        W21719   4.189   7.073   6.009 -0.0867 -0.1364  0.0593
18122W        W21720  15.586   7.499   1.989 -0.0659  0.1076  0.1180
18123W        W21721   2.394  11.402  11.589 -0.2733  0.1162  0.0148
18124W        W21722   5.356   9.414   9.800  0.0611 -0.1785  0.3641
18125W        W21723  13.767   9.608  13.874  0.0742  0.1952  0.1748
18126W        W21724   2.730  15.129   9.511  0.1472  0.1070 -0.0208
18127W        W21725   2.496  16.292  11.944 -0.0031  0.2876  0.0587
18128W        W21726  14.476   0.266   5.843 -0.0494 -0.3566  0.2811
18129W        W21727   0.993   1.029  14.974  0.2510 -0.0273 -0.4047
18130W        W21728   3.514   1.707  11.873  0.0596  0.1365  0.1272
18131W        W21729   8.131   7.301  13.871 -0.1671 -0.0336 -0.0587
18132W        W21730  13.048   2.868   5.563 -0.1021 -0.2112  0.0351
18133W        W21731  14.946   7.221  16.328  0.1775 -0.2032  0.0108
18134W        W21732  10.304  11.273  10.170 -0.1207  0.0525 -0.0336
18135W        W21733  12.478   7.589  12.062 -0.1153  0.3575  0.0413
18136W        W21734   3.455  10.456  11.325  0.2756  0.0741  0.0966
18137W        W21735   7.200   6.394   4.412  0.0055  0.1950  0.0091
18138W        W21736   1.430  10.228   2.128 -0.0252 -0.1732  0.1609
18139W        W21737   8.409   7.610   4.141 -0.3197  0.2189 -0.1569
18140W        W21738   3.093   1.819   3.207 -0.0017 -0.0256  0.1364
18141W        W21739   1.102  14.827  10.662 -0.5133  0.2339  0.0543
18142W        W21740  15.452   1.664   4.768 -0.0998 -0.2123 -0.1683
18143W        W21741   0.097  11.279   2.118 -0.0081  0.2778  0.3168
18144W        W21742  13.703  10.122   4.265 -0.1446  0.0052  0.1273
18145W        W21743  12.987  13.976   4.706 -0.1416  0.0603  0.1425
18146W        W21744  16.158   5.025   0.234  0.1598  0.3119 -0.1397
18147W        W21745  15.380   9.146  13.037 -0.1451 -0.0226 -0.1664
18148W        W21746   2.879  11.420  13.488  0.0781  0.0471  0.1040
18149W        W21747   5.636   8.904  13.016 -0.0273  0.2941  0.2475
18150W        W21748   2.135   7.462  12.720 -0.1107 -0.1521  0.1674
18151W        W21749  13.076   7.367   3.227  0.0041  0.0114  0.0428
18152W        W21750  10.864  15.022  16.166  0.2219  0.1578 -0.0299
18153W        W21751  16.339   6.102   9.943 -0.2875  0.0193 -0.2166
18154W        W21752   3.046   5.447   5.588 -0.1791 -0.0284 -0.1783
18155W        W21753  15.639  12.086   4.971 -0.1888  0.0635 -0.1408
18156W        W21754   1.549   5.772   9.734 -0.2214 -0.6277 -0.0532
18157W        W21755   1.000   0.965  14.452  0.0276  0.0425 -0.0164
18158W        W21756   1.111  11.636   4.608 -0.0416  0.0434  0.0280
18159W        W21757  14.334   1.115  14.291 -0.3124  0.1500 -0.0871
18160W        W21758   4.907   0.628   0.252 -0.2722 -0.0331  0.0552
18161W        W21759  12.685  14.864   2.310  0.3352 -0.1838 -0.0639
18162W        W21760   9.411  11.189  13.854 -0.3412  0.0742 -0.0961
18163W        W21761   5.462  11.685  12.860 -0.2783  0.2479 -0.0587
18164W        W21762   0.563   5.684   4.158  0.0924  0.1326 -0.1814
18165W        W21763  10.979  13.239   3.824  0.0040 -0.0135  0.4262
18166W        W21764  14.574   3.076   1.023  0.1300  0.0115 -0.1807
18167W        W21765  16.197  11.414  14.349  0.1555  0.1239  0.0066
18168W        W21766  14.331  11.101  16.242  0.5131 -0.1578  0.2458
18169W        W21767  12.095  10.922   6.793  0.0300 -0.1038  0.0776
18170W        W21768  11.073   7.973   4.706 -0.0775  0.0996  0.2551
18171W        W21769   6.349  10.468   7.685 -0.2418  0.2958 -0.1197
18172W        W21770  14.126   6.464  14.155 -0.1350  0.0344 -0.2529
18173W        W21771  11.944   4.707   6.813  0.3585  0.0757 -0.1499
18174W        W21772   9.319  15.530  10.051  0.1048 -0.0168  0.0060
18175W        W21773  11.025   6.123   3.414 -0.1955  0.0867 -0.0244
18176W        W21774   6.357   9.053  10.627  0.0671  0.0940  0.0680
18177W        W21775   9.022   0.058   4.676  0.0299 -0.0482  0.5339
18178W        W21776  15.961  11.728   4.825 -0.0792 -0.1065 -0.3129
18179W        W21777   6.753   2.868  15.807 -0.2513  0.1689  0.0946
18180W        W21778   2.969   4.650  13.469  0.0666  0.0634  0.0333
18181W        W21779   9.356  14.193  14.614 -0.1464  0.1437 -0.0041
18182W        W21780   2.030   9.368   3.041 -0.1248 -0.1802  0.0984
18183W        W21781   1.483  14.910  11.629  0.1182 -0.0454  0.1421
18184W        W21782   2.944   2.041   5.466 -0.1849  0.0514  0.1494
18185W        W21783   3.285   0.696  11.381 -0.4374  0.0633 -0.2125
18186W        W21784   7.858   4.242   0.863 -0.2326 -0.2500 -0.1198
18187W        W21785   1.281   0.380   4.182 -0.0301 -0.1518  0.0451
18188W        W21786  15.076   8.999   4.957  0.0609  0.0076 -0.0980
18189W        W21787   9.943   2.993   8.970 -0.2079  0.1717 -0.2753
18190W        W21788  11.908   1.103   8.826  0.1635 -0.1948 -0.0654
18191W        W21789  12.868  14.338  12.781 -0.1648 -0.1020  0.2324
18192W        W21790   2.179  13.042  14.884 -0.0306 -0.1433 -0.2704
18193W        W21791   4.465   9.717   3.298  0.0401 -0.2771 -0.0277
18194W        W21792   9.146   5.113   9.452  0.1108 -0.1074  0.1450
18195W        W21793   1.510   8.387   6.188  0.0627  0.0399 -0.0486
18196W        W21794   6.499   1.325   0.596 -0.1304  0.1380  0.3650
18197W        W21795  10.539   4.662   4.981 -0.4608 -0.2178  0.0571
18198W        W21796  13.429  11.318   0.180  0.1525 -0.1363  0.2021
18199W        W21797  13.837   0.708   2.535  0.1866  0.1381 -0.1378
18200W        W21798  10.320   7.063   5.439  0.0778 -0.2050  0.0501
18201W        W21799  14.765   6.113   7.191  0.2255 -0.1547 -0.0348
18202W        W21800   8.867   4.958   2.531 -0.1230 -0.0214 -0.2197
18203W        W21801  12.718   2.078  10.516 -0.1314  0.2243 -0.1292
18204W        W21802   4.533   9.271   6.349  0.0058 -0.2216 -0.0935
18205W        W21803   3.852   8.245   8.746  0.2557  0.2845 -0.0044
18206W        W21804  10.630  11.083   1.857  0.0698  0.0591 -0.0236
18207W        W21805   2.559  13.116  10.055  0.0968  0.1872  0.4310
18208W        W21806  15.063  15.590   5.454  0.0679 -0.0262 -0.2579
18209W        W21807   9.994   6.253  14.152  0.0650 -0.0308 -0.1717
18210W        W21808   1.396   3.565   7.713 -0.3477  0.1024 -0.1122
18211W        W21809   2.995  11.821  11.092 -0.1295  0.2083  0.2606
18212W        W21810   9.298   8.747   1.792 -0.0210 -0.1475 -0.0846
18213W        W21811   0.586  14.365   2.220  0.0251  0.2933 -0.1804
18214W        W21812   0.598   5.968  16.149  0.2045 -0.0250  0.0251
18215W        W21813  12.153  13.402  12.303  0.2506  0.0747  0.0226
18216W        W21814  13.101   7.579   6.095  0.2342 -0.0172  0.1314
18217W        W21815  11.722   7.364   5.826  0.1150  0.3330  0.1858
18218W        W21816  13.873  12.329  10.507 -0.0922  0.0130  0.2512
18219W        W21817  12.358   2.786   8.201  0.1930  0.0570 -0.3443
18220W        W21818   4.474   9.481   5.852  0.3868  0.0749  0.0661
18221W        W21819   0.702  10.631   6.746  0.0957 -0.3025 -0.1041
18222W        W21820   0.458   9.872  12.113 -0.0779  0.1957 -0.1699
18223W        W21821   6.503   8.587  15.836  0.1111 -0.1277  0.0757
18224W        W21822   3.542   2.352   4.761 -0.1015 -0.0047  0.0904
18225W        W21823  11.768   5.575   7.981 -0.1986  0.2746  0.1858
18226W        W21824  16.331   0.460   9.232 -0.2566  0.1807  0.4401
18227W        W21825   1.543  15.874   3.702 -0.2591  0.0373 -0.1094
18228W        W21826   4.108  11.720  14.694  0.3891 -0.1929  0.0929
18229W        W21827   3.664   7.758  13.453  0.0570 -0.1751 -0.1089
18230W        W21828   6.891   6.226  15.275 -0.0493 -0.2955  0.1426
18231W        W21829  10.363   3.808   3.911 -0.0849 -0.0117  0.3811
18232W        W21830  13.792   1.090   7.905 -0.0922 -0.0012 -0.0567
18233W        W21831   8.593   1.932   7.592  0.4086 -0.0064 -0.0886
18234W        W21832  16.365  14.027   2.684 -0.1412 -0.1237  0.0086
18235W        W21833  10.732   2.692   9.581 -0.4708  0.0548 -0.2606
18236W        W21834  12.395   6.157  14.710  0.2812 -0.3923  0.1649
18237W        W21835  15.505   1.669  11.279  0.0074 -0.0629  0.1800
18238W        W21836   9.247   2.288   7.190  0.1496  0.2722 -0.3424
18239W        W21837   1.183  12.530   5.537  0.1172  0.0376  0.0323
18240W        W21838  11.944  11.069  15.558  0.1187  0.0954 -0.3037
18241W        W21839  15.087  13.194   4.257 -0.3354  0.1094  0.0568
18242W        W21840   4.161   5.099   1.131 -0.0057  0.4077  0.2619
18243W        W21841   7.330  16.223   0.654  0.0157 -0.0317  0.1880
18244W        W21842   4.916   1.544   3.256  0.2098  0.2745  0.1023
18245W        W21843  14.036   8.167   1.051 -0.1757 -0.2309 -0.0802
18246W        W21844  12.922   3.465  15.801  0.0809 -0.1720  0.1109
18247W        W21845   6.554  15.090  10.980  0.0541 -0.0451  0.0513
18248W        W21846   7.408   7.149   0.406  0.2026 -0.0171 -0.1275
18249W        W21847   4.521   2.296  11.184 -0.2981 -0.1237  0.2437
18250W        W21848  11.187   7.773  14.305 -0.2757 -0.2324  0.2633
18251W        W21849   7.125   1.133   2.046  0.2280  0.1841 -0.1612
18252W        W21850  10.570   1.859  13.420  0.0659 -0.0053 -0.0711
18253W        W21851   3.350  13.026   9.844  0.2179 -0.2628 -0.2371
18254W        W21852   9.557   7.156  13.844 -0.0304 -0.2027  0.1389
18255W        W21853  15.057  10.862  11.389  0.0772  0.1150 -0.4271
18256W        W21854  11.245   4.348   9.053  0.4351  0.1516  0.1833
18257W        W21855   0.784  10.030  15.970 -0.3795 -0.0894 -0.0356
18258W        W21856   4.823  14.173  11.689  0.3469  0.0658 -0.1057
18259W        W21857   5.676  14.241   8.470 -0.1533  0.1193  0.2239
18260W        W21858  13.082  13.973   1.970  0.3236  0.3857  0.1892
18261W        W21859  13.649   7.821  10.400 -0.0494  0.1375 -0.0041
18262W        W21860   9.673  12.583   9.059  0.1031  0.2525  0.3177
18263W        W21861   8.567  13.788  13.855  0.0488  0.0148  0.0200
18264W        W21862   9.678  10.620   5.867  0.1688 -0.2392 -0.1020
18265W        W21863   4.213   2.383  15.301  0.4915 -0.0495 -0.0010
18266W        W21864  14.896   9.743   3.959  0.1229 -0.1113  0.0335
18267W        W21865  15.405   4.731  14.231 -0.2365  0.0638  0.2763
18268W        W21866  15.426   7.436   0.994 -0.2067 -0.2531 -0.3718
18269W        W21867   2.181   7.445   4.071  0.2188 -0.0968  0.0510
18270W        W21868   2.679  14.438  11.067 -0.0095 -0.0836  0.1862
18271W        W21869   7.467   6.115   4.090  0.2750 -0.0945  0.1041
18272W        W21870  14.842  15.707  15.565 -0.2701 -0.0123 -0.1253
18273W        W21871   4.479   7.543  15.812  0.0709  0.1139  0.0357
18274W        W21872   5.360  11.904   9.259  0.0748 -0.1323  0.2056
18275W        W21873   7.356  12.022   7.492 -0.2549  0.0913 -0.0483
18276W        W21874  15.717   6.068  10.724 -0.1989  0.0426 -0.0548
18277W        W21875   5.018   6.220   3.707  0.1154  0.0201 -0.1561
18278W        W21876  12.293  11.848   8.837 -0.1475 -0.0500 -0.1003
18279W        W21877   5.148   6.381   8.200 -0.3008 -0.1351 -0.1330
18280W        W21878   1.430   6.859  12.999  0.0270 -0.2247 -0.0116
18281W        W21879   6.249  16.239   3.360 -0.2567  0.1769 -0.0615
18282W        W21880   9.714   6.074  11.577 -0.1447  0.1887  0.1904
18283W        W21881  11.361  10.147   1.304 -0.0003  0.0409 -0.0733
18284W        W21882   3.742   5.867   1.559 -0.0800  0.0850 -0.2696
18285W        W21883   6.487  14.853   5.451  0.2482  0.0930  0.1684
18286W        W21884  13.564   9.810  11.500  0.1539 -0.0195  0.2017
18287W        W21885  10.925  13.995   3.652 -0.3836 -0.2303  0.0063
18288W        W21886   7.793  11.593   6.202 -0.1411 -0.0028  0.1704
18289W        W21887   3.600   0.268   1.607  0.0442 -0.1165  0.0614
18290W        W21888  13.559  12.042  14.742  0.1581  0.1956  0.0033
18291W        W21889   7.939  15.371   4.816 -0.2037  0.0778  0.0062
18292W        W21890  15.734   5.703   8.939  0.1689  0.0194  0.0550
18293W        W21891  15.379   9.902   8.482  0.0695 -0.3002 -0.1611
18294W        W21892  16.148   8.421  15.827 -0.0639 -0.2699 -0.0598
18295W        W21893   3.604  14.804  12.759  0.0363  0.0649  0.3033
18296W        W21894   6.443  11.594  12.029  0.1166 -0.2498 -0.0949
18297W        W21895   6.748   1.044  10.990 -0.2275  0.3030  0.1316
18298W        W21896   9.283  13.547   7.936 -0.1978 -0.0325 -0.2433
18299W        W21897  15.902  16.370   9.968 -0.0386  0.1933  0.1995
18300W        W21898   7.977  13.033   1.847  0.1848 -0.0513  0.0240
18301W        W21899   7.759  12.854   3.192 -0.0106  0.1648 -0.0683
18302W        W21900   0.507   9.700   7.364  0.0593  0.1480 -0.1833
18303W        W21901   2.429  13.953   4.158  0.0573 -0.1584  0.0002
18304W        W21902  11.016  15.061   3.783 -0.1438 -0.2779 -0.0275
18305W        W21903   7.496   1.315   7.351  0.0552 -0.0495  0.0140
18306W        W21904  11.662   9.790  14.384  0.2110 -0.0930 -0.4978
18307W        W21905   1.707   8.328   3.086  0.1302 -0.0870  0.2232
18308W        W21906   8.520   5.018   3.374  0.1310 -0.0796 -0.1808
18309W        W21907   2.067  11.203  11.220  0.1973 -0.0175 -0.2443
18310W        W21908   1.873   3.986  14.105 -0.0798  0.1486  0.0986
18311W        W21909  14.069  10.254   3.013 -0.3530 -0.0691 -0.3598
18312W        W21910   7.283   3.410   6.786 -0.1720 -0.1998 -0.1681
18313W        W21911   3.762  15.444   4.846  0.0846  0.0456 -0.1899
18314W        W21912   1.543  14.343   0.286  0.2418 -0.0214 -0.2826
18315W        W21913   2.346  13.019   0.746  0.1538 -0.2010  0.2351
18316W        W21914   8.828   6.778   1.869 -0.2203  0.4413 -0.0418
18317W        W21915   1.613   8.716   6.543  0.2171  0.0066  0.3391
18318W        W21916   8.626   3.908   0.180  0.2455  0.2109 -0.0931
18319W        W21917   6.001   3.400  14.593 -0.0675 -0.2311 -0.1785
18320W        W21918  14.929  12.897   6.915  0.0698 -0.1887  0.0266
18321W        W21919   2.069  14.676  10.659  0.0901 -0.0657 -0.1906
18322W        W21920   4.613   5.813   5.771 -0.0807  0.2316  0.0927
18323W        W21921   5.869   4.950   9.217  0.1846  0.0380  0.1261
18324W        W21922   0.771   9.695   1.582  0.2410 -0.0293 -0.1845
18325W        W21923  12.796   3.862   9.064 -0.0859  0.3558  0.0121
18326W        W21924   6.926  15.302  11.710 -0.1937 -0.0692  0.0167
18327W        W21925   6.985   2.820  11.500 -0.2632  0.1563  0.1385
18328W        W21926   5.545  11.149  13.576  0.0656 -0.0032  0.2206
18329W        W21927   6.968  15.286   2.023 -0.0109  0.2378 -0.0133
18330W        W21928   0.854  16.079  14.812 -0.2818 -0.0580 -0.5366
18331W        W21929  14.157  14.079   1.521  0.1422  0.4546  0.1020
18332W        W21930   2.182  13.576   8.467  0.2160  0.1738  0.0168
18333W        W21931   9.361  13.432  14.992  0.1072 -0.0290 -0.1036
18334W        W21932  11.546   8.537   8.609  0.1053 -0.0661 -0.1083
18335W        W21933   5.234   8.399   6.812 -0.1191  0.2428  0.2098
18336W        W21934  13.606   1.395  10.063 -0.1743  0.1764 -0.3068
18337W        W21935   1.399   8.264   7.281  0.1982  0.1437 -0.1162
18338W        W21936   2.037   9.426   8.292  0.1831  0.0784 -0.0550
18339W        W21937   7.454  13.332   5.906  0.1536  0.1089 -0.0869
18340W        W21938   0.800   4.776  10.277 -0.0338 -0.1812 -0.0269
18341W        W21939   5.437   9.691   5.614 -0.0604 -0.1989  0.0571
18342W        W21940   6.055  12.428   4.636 -0.2206  0.1216  0.1378
18343W        W21941   9.477   7.411  14.293  0.2196  0.0890  0.1904
18344W        W21942   2.941   0.838  15.454 -0.1845  0.0394 -0.0909
18345W        W21943   6.470  10.074   3.678  0.3036 -0.0503  0.0029
18346W        W21944   2.698   3.863   9.164 -0.0653  0.1572 -0.0665
18347W        W21945  13.107  14.148   0.640  0.3428 -0.1184  0.1550
18348W        W21946  14.533  14.138   7.634 -0.1843 -0.1361 -0.0413
18349W        W21947   3.447  10.843   1.918 -0.2385  0.2439  0.1255
18350W        W21948   0.553   9.883   6.716 -0.2961 -0.1274 -0.0002
18351W        W21949   4.465  15.928  12.079  0.0996 -0.3197 -0.2332
18352W        W21950   6.583  16.120  14.494 -0.2472  0.0523  0.0826
18353W        W21951  11.713   3.460   8.248  0.0544 -0.0099 -0.0280
18354W        W21952   1.162  10.830  14.766  0.0018  0.3028 -0.0570
18355W        W21953   9.775  12.335  13.426 -0.0507  0.0242  0.1884
18356W        W21954  11.701   4.442   3.729  0.0923  0.2117  0.4756
18357W        W21955   1.724  15.318  11.276  0.0274  0.1129 -0.0495
18358W        W21956  12.394   9.478   8.042 -0.2162 -0.2039 -0.0120
18359W        W21957   9.059  15.607   9.570 -0.0463  0.3626 -0.2646
18360W        W21958  11.058  13.275   0.916  0.0826 -0.0816 -0.1811
18361W        W21959  10.076   9.478   9.043 -0.0222  0.1678  0.0310
18362W        W21960   1.345   8.702   1.337 -0.0870  0.1492  0.2205
18363W        W21961   1.462   5.736   4.397 -0.0027  0.2326  0.2518
18364W        W21962  13.059   3.398  15.320  0.0137  0.0122  0.0943
18365W        W21963   4.467   0.246   3.208  0.0280  0.1379  0.0812
18366W        W21964   9.353   8.370  12.618  0.1726  0.0324 -0.1603
18367W        W21965  16.122  13.760   5.740 -0.1699 -0.1188  0.0256
18368W        W21966   8.433   4.744   1.732 -0.1495 -0.1310 -0.2366
18369W        W21967   1.518  13.983   3.168  0.2182 -0.2035  0.1605
18370W        W21968   3.009   2.770   1.923  0.1086  0.0393  0.0296
18371W        W21969  14.997  12.777  11.329  0.0805 -0.1985 -0.2593
18372W        W21970  15.670  12.376  13.445  0.0508 -0.1797 -0.0082
18373W        W21971   5.210  10.685  11.003 -0.1383  0.0794  0.1145
18374W        W21972   0.603  14.493   4.150  0.1127 -0.0852  0.0904
18375W        W21973  16.369   5.248   9.920 -0.1353 -0.1734  0.0092
18376W        W21974   8.916   1.726   0.280 -0.0967 -0.0382  0.0342
18377W        W21975  11.650  12.019  10.817  0.1205  0.0881  0.3590
18378W        W21976  11.586  11.435   2.443 -0.1945  0.3621  0.0447
18379W        W21977   6.237   6.929  13.351 -0.0132  0.1568  0.0663
18380W        W21978  14.966   9.101  15.709  0.3043 -0.1163  0.1092
18381W        W21979   0.056  15.455   0.474 -0.1716 -0.2919 -0.0611
18382W        W21980   8.342  11.980  11.074  0.0274 -0.3126  0.3343
18383W        W21981   6.208  15.180   3.482  0.2003  0.0146  0.0066
18384W        W21982   0.326   8.421  14.122 -0.3777 -0.1633  0.1174
18385W        W21983  15.840  12.910   9.118  0.0569  0.2338 -0.2933
18386W        W21984   9.118   5.179   3.607  0.1712 -0.1591 -0.0674
18387W        W21985   4.992  13.249  12.786 -0.1709 -0.0097 -0.1998
18388W        W21986  10.396   3.042   4.353 -0.1114 -0.1343  0.2674
18389W        W21987  15.323   6.705   8.937  0.1534 -0.2538 -0.2107
18390W        W21988   1.504   1.617   7.895  0.0165  0.0302  0.1517
18391W        W21989   7.714  10.974  10.365  0.0283  0.0716  0.2473
18392W        W21990   1.443  13.171   4.344 -0.1254 -0.0016 -0.0662
18393W        W21991   3.525  10.214  12.285 -0.3924  0.2944 -0.0142
18394W        W21992   8.504   2.900   8.894  0.0465 -0.0313  0.0987
18395W        W21993  15.089   8.567  11.880  0.3557 -0.0201  0.2048
18396W        W21994  15.447   7.569  13.199 -0.0441  0.1885 -0.0261
18397W        W21995   2.081   8.133   2.768  0.0010 -0.3984 -0.0174
18398W        W21996  12.867   6.187  14.860 -0.1340 -0.1798 -0.0281
18399W        W21997   8.369  13.585  13.355 -0.0524 -0.1163 -0.0043
18400W        W21998   1.644  10.495  13.758 -0.1483 -0.0688 -0.1558
18401W        W21999   1.498   4.924   9.734  0.1732 -0.0191 -0.0705
18402W        W22000   3.890  11.024  14.252  0.0562 -0.0032 -0.1368
18403W        W22001  15.961  10.456   9.910  0.0952 -0.2670  0.0062
18404W        W22002  13.222  12.976   4.080 -0.2986  0.0645  0.0086
18405W        W22003  10.915   5.402   9.581 -0.0305 -0.0185  0.1499
18406W        W22004   5.499  11.577   4.544 -0.0483 -0.1425 -0.1158
18407W        W22005  15.176   8.497  15.747 -0.1000  0.0351 -0.1560
18408W        W22006  10.017   1.640  10.237  0.0283  0.2394 -0.0214
18409W        W22007   3.271   1.555   6.003  0.0372  0.1502  0.3260
18410W        W22008  13.640   0.668   3.380  0.0613 -0.2602  0.1997
18411W        W22009   7.301   0.343  10.620  0.0605 -0.3040 -0.1524
18412W        W22010  11.005   6.809   5.941 -0.2662  0.3246 -0.0934
18413W        W22011  13.372  10.978  15.160  0.0260 -0.0422  0.0035
18414W        W22012  14.287  14.561   1.486  0.0958 -0.1806 -0.0738
18415W        W22013   6.143   7.754  10.456 -0.0699 -0.0810  0.3705
18416W        W22014   1.416  11.321  15.850 -0.2145 -0.1197  0.2410
18417W        W22015  12.898   7.941   8.005  0.0612 -0.0383 -0.1076
18418W        W22016   8.542   6.928   3.489  0.0198 -0.2957 -0.0166
18419W        W22017  10.715   4.417  11.246  0.2967  0.0930  0.2090
18420W        W22018   8.318  13.664  10.161  0.0099  0.0034  0.2273
18421W        W22019   0.619   9.243   1.648  0.0851 -0.4023 -0.2981
18422W        W22020  13.590   1.170  13.241  0.2572 -0.0596 -0.3150
18423W        W22021  14.803  14.287   6.622  0.1365 -0.2899 -0.1476
18424W        W22022  10.369  11.868   6.820  0.3504  0.0080 -0.3227
18425W        W22023  13.431   8.566  12.338 -0.1554 -0.2654 -0.2536
18426W        W22024   2.613  10.596  16.276  0.0658 -0.0772 -0.0136
18427W        W22025   5.392   2.977   0.854 -0.4706 -0.0896  0.1180
18428W        W22026  10.003  10.652   1.242  0.1247 -0.0706  0.0988
18429W        W22027   3.015   8.178   4.406  0.1899  0.1284 -0.1458
18430W        W22028  10.966   2.557   0.491  0.2180  0.2816 -0.1172
18431W        W22029  11.091   1.584  12.295  0.0179 -0.1377  0.1839
18432W        W22030   8.284   4.183   1.057  0.0509 -0.2307 -0.2416
18433W        W22031   7.312   7.124  15.552  0.0763 -0.0613 -0.0179
18434W        W22032   1.566   1.392  10.883 -0.1745 -0.1769  0.0805
18435W        W22033  11.152   5.978  15.640 -0.1341  0.0759  0.2572
18436W        W22034   8.824  14.667  10.058  0.1037  0.0465 -0.2937
18437W        W22035  10.702  15.569   5.744 -0.3476 -0.0567  0.0019
18438W        W22036  12.744   3.999  12.107  0.1579 -0.1917 -0.0037
18439W        W22037  16.243  15.592   3.181  0.1840  0.1193  0.1630
18440W        W22038   4.250   9.118   3.462  0.0992  0.0746  0.1194
18441W        W22039  14.860   5.968  13.020  0.1925  0.0045 -0.0707
18442W        W22040   4.116   1.021   6.282 -0.1793 -0.2190  0.2298
18443W        W22041  14.719  12.412   7.099 -0.0742  0.0509  0.2208
18444W        W22042  16.269   3.957  12.623 -0.0413 -0.0905 -0.0419
18445W        W22043   5.907   1.613   4.381  0.0977 -0.1752  0.2143
18446W        W22044   4.551   1.539   4.460  0.0100  0.0271 -0.2582
18447W        W22045  14.492   0.016  13.766  0.0505 -0.1390 -0.0930
18448W        W22046   1.785   0.657  15.634  0.2157 -0.3569 -0.1309
18449W        W22047  14.600   8.832   7.726  0.1491  0.1837  0.1940
18450W        W22048   6.591  15.997   5.060 -0.1861 -0.2191 -0.1356
18451W        W22049   7.326   4.884  14.487 -0.0889 -0.1617  0.0406
18452W        W22050   4.250   4.073  14.340  0.1990 -0.0484  0.3466
18453W        W22051  10.149   0.477   6.139  0.1331  0.0773 -0.1124
18454W        W22052  13.707  12.722  13.692 -0.2597  0.2015  0.0364
18455W        W22053  14.430   7.906  11.367  0.0054  0.1807  0.0268
18456W        W22054  15.602  15.187  15.135  0.0274  0.1136 -0.0264
18457W        W22055   5.539  11.727   0.039  0.0270  0.0597  0.0402
18458W        W22056   1.296   8.292   9.595 -0.0925  0.1553 -0.1137
18459W        W22057   4.714   3.775  15.624 -0.3989  0.1591  0.1299
18460W        W22058   5.337   0.324  11.634  0.0853 -0.0332 -0.0037
18461W        W22059  15.032   6.764  10.515  0.2187  0.2610  0.0136
18462W        W22060  13.954  10.305   1.771  0.0929  0.1692 -0.1133
18463W        W22061  14.840  16.316   2.562 -0.0318  0.0855 -0.0912
18464W        W22062  15.964  14.244   3.427 -0.2813 -0.3154  0.0094
18465W        W22063   5.292   7.071   0.375 -0.1587 -0.0966 -0.0557
18466W        W22064   7.712  14.615  15.486  0.0610 -0.2403 -0.1388
18467W        W22065   8.874  13.284   5.067  0.0298 -0.1485  0.1472
18468W        W22066   7.380   8.144   0.403  0.0364  0.2019  0.2864
18469W        W22067  13.137   0.297  14.261 -0.0448 -0.2054  0.1551
18470W        W22068   1.642  13.201  12.108  0.1059 -0.1839 -0.0280
18471W        W22069   8.738  12.914  10.403 -0.2315  0.0382  0.4451
18472W        W22070   7.185   8.575   1.418  0.1105 -0.3011  0.0323
18473W        W22071   5.891  16.237  10.705 -0.1298 -0.1223 -0.2960
18474W        W22072   7.562  13.987  11.132 -0.1207 -0.1227 -0.1215
18475W        W22073   0.527  12.475  11.824  0.0125 -0.0166 -0.0290
18476W        W22074   9.255  15.247   0.132 -0.0068 -0.2186  0.0765
18477W        W22075   9.552   5.947   7.775 -0.1052 -0.1635 -0.0046
18478W        W22076  13.214   3.701   5.888  0.0798  0.0318  0.0919
18479W        W22077   6.239  14.753   6.523  0.0748 -0.1007  0.0359
18480W        W22078  13.253   9.140   8.572  0.2247 -0.3461  0.0568
18481W        W22079   6.702   6.606  10.134  0.1216  0.3798  0.2925
18482W        W22080   1.153  10.056   3.138 -0.2914 -0.0409  0.0160
18483W        W22081  11.575   5.487   3.099 -0.2527 -0.3037  0.0177
18484W        W22082   9.603   7.586   7.885 -0.1874  0.0737  0.0011
18485W        W22083   4.124   4.093   6.286  0.1803  0.0921 -0.0283
18486W        W22084  10.577  13.140  11.038  0.0131  0.3365 -0.1232
18487W        W22085   1.449  12.981  11.662 -0.0181 -0.1555  0.0318
18488W        W22086   4.724  11.332   0.091 -0.3283  0.0278 -0.0221
18489W        W22087  12.164  16.184   0.313  0.2038  0.0913  0.0789
18490W        W22088   9.584  10.558  15.395  0.3174 -0.0785 -0.4298
18491W        W22089   6.129   1.774  14.680  0.2171  0.0525 -0.3411
18492W        W22090  15.215  14.083  10.655  0.1085  0.1443  0.0062
18493W        W22091  11.516  11.271   0.203  0.3642 -0.1454  0.1846
18494W        W22092  13.088  13.198   7.151 -0.1178  0.0523 -0.1607
18495W        W22093   0.760   8.228   1.873  0.0114 -0.3090 -0.0714
18496W        W22094   7.911   7.730   2.418  0.0269  0.1536 -0.1431
18497W        W22095   7.784   1.922  10.598  0.0752 -0.0497 -0.1051
18498W        W22096   6.162   2.028  15.271  0.3123  0.2995 -0.0670
18499W        W22097  14.281   6.717  11.512  0.0312  0.0379  0.0424
18500W        W22098  10.474   0.994  15.009 -0.1241 -0.0451  0.3423
18501W        W22099  16.354  12.685   9.081  0.2808 -0.1255 -0.0879
18502W        W22100   3.848   7.882  11.088 -0.0403 -0.0878 -0.0199
18503W        W22101  14.542   8.454   1.545  0.0135  0.1541  0.2400
18504W        W22102  10.730  15.746   1.314  0.3797  0.0408 -0.1979
18505W        W22103   2.601   3.234   3.669  0.2992 -0.2307 -0.0986
18506W        W22104   8.955   4.261   9.106 -0.1572  0.0445  0.2789
18507W        W22105  12.050   7.748   0.879  0.4587  0.0090  0.1494
18508W        W22106   5.259   5.313   9.392 -0.4017  0.2379  0.0644
18509W        W22107   6.293  12.979   2.307 -0.0223  0.1240 -0.0904
18510W        W22108  13.316   5.824   4.532  0.2302  0.1157  0.1902
18511W        W22109   5.803   4.186   1.836 -0.2072  0.2536  0.0608
18512W        W22110  12.643  15.951   0.182 -0.0812 -0.1408  0.0303
18513W        W22111   4.877   3.641   6.063  0.0602  0.1252 -0.2198
18514W        W22112   7.793  16.185   5.487 -0.1115 -0.1690 -0.1104
18515W        W22113   1.454   5.657  16.096 -0.0293  0.1021 -0.2038
18516W        W22114   4.448   4.523   5.061  0.2428  0.0549  0.0488
18517W        W22115   8.418   3.154   2.262 -0.0079  0.1082 -0.0754
18518W        W22116   1.258  12.756   6.596  0.0147 -0.1385  0.1880
18519W        W22117   9.758   2.109  10.438  0.2147 -0.2444  0.2015
18520W        W22118  10.287   8.300  11.857 -0.1684 -0.0594  0.1708
18521W        W22119  10.671   2.453   1.707 -0.0511  0.2248  0.2731
18522W        W22120  16.291   8.556  13.296 -0.2466 -0.0480  0.1793
18523W        W22121   0.616   3.011  12.641 -0.5296 -0.0127  0.0178
18524W        W22122  16.215   9.854  10.497  0.1678  0.2211 -0.1016
18525W        W22123   3.969   7.784   8.209 -0.0751 -0.0396 -0.0524
18526W        W22124   0.421   4.311  14.636 -0.0140  0.1154  0.1522
18527W        W22125   0.553   2.327   5.152 -0.1996 -0.2636 -0.1039
18528W        W22126   4.440   0.169  12.983  0.3141 -0.1365 -0.0668
18529W        W22127  13.327   0.076   4.199  0.0427  0.1067 -0.0404
18530W        W22128   3.654  10.084   2.572  0.0398 -0.1678  0.0394
18531W        W22129   7.835  12.371   0.296 -0.0085 -0.1754 -0.1218
18532W        W22130   2.966  10.227  16.184 -0.1202  0.0372  0.2755
18533W        W22131  13.931   8.237  15.240  0.0482 -0.1551 -0.1537
18534W        W22132  10.979  10.499  13.097  0.2013 -0.0022  0.0518
18535W        W22133  10.295   8.258   2.519 -0.0753 -0.2219  0.0687
18536W        W22134   1.964   5.473   6.115 -0.1642 -0.0437  0.0880
18537W        W22135  15.388   1.763   0.305  0.2033 -0.3280 -0.0753
18538W        W22136  11.839  15.796   0.326  0.0982  0.1522  0.3796
18539W        W22137  10.575   3.975   4.292 -0.1569  0.0859  0.1242
18540W        W22138   0.315  13.020  10.484  0.0389 -0.2383  0.3534
18541W        W22139   7.869   2.322   9.528 -0.0769 -0.2256  0.0429
18542W        W22140  12.863   9.292   7.906  0.1106 -0.1106  0.1884
18543W        W22141   9.902   3.679  13.779  0.1847 -0.0787 -0.4173
18544W        W22142   5.657   4.797   1.085 -0.2124 -0.1161 -0.2573
18545W        W22143  11.013   2.833   5.122 -0.0097 -0.1154 -0.0449
18546W        W22144   4.456  15.745  15.763  0.1928 -0.3327  0.1107
18547W        W22145   7.790   4.435   5.254  0.1295  0.0227 -0.3224
18548W        W22146   7.392   6.016   5.244  0.1873  0.1434 -0.0883
18549W        W22147  13.819  14.277   3.767  0.1908  0.3467 -0.2237
18550W        W22148   0.259  12.981   6.914  0.1698 -0.1520  0.2429
18551W        W22149   7.622   5.581   6.063 -0.0510 -0.0475 -0.0830
18552W        W22150   1.267   9.546   0.369 -0.0405  0.1232  0.1654
18553W        W22151   2.650  15.004   6.860 -0.0890  0.0425  0.0150
18554W        W22152   1.596   8.067  12.858  0.1806  0.2049  0.0000
18555W        W22153   9.018  11.956   7.018  0.0150  0.2360 -0.2363
18556W        W22154   8.854   6.317  11.383 -0.5500 -0.0601  0.0393
18557W        W22155  16.287   8.922   0.641  0.0494  0.1394  0.0349
18558W        W22156   5.369   8.968   7.760  0.3001  0.1028  0.1030
18559W        W22157   4.539  11.535   8.631 -0.0485 -0.0783  0.3145
18560W        W22158  14.297  15.416   9.279  0.1526 -0.1856 -0.0638
18561W        W22159  15.837   9.577   7.221  0.1856 -0.4049  0.0078
18562W        W22160  10.284   2.112   5.808  0.1114  0.1811 -0.0765
18563W        W22161  10.620  13.730   9.210  0.2136  0.1247  0.2796
18564W        W22162  16.338  13.372  16.205 -0.0614 -0.3017 -0.0816
18565W        W22163   5.728   0.942   7.294 -0.2472 -0.2535  0.1808
18566W        W22164  10.025  11.158   8.456  0.0010 -0.1246  0.0119
18567W        W22165   8.424  11.533  16.210  0.0996  0.0679 -0.1081
18568W        W22166   8.985   2.945   0.348  0.3479 -0.1025 -0.0962
18569W        W22167   2.402   7.941   6.165 -0.0236  0.1929 -0.2799
18570W        W22168   8.107  14.869   2.783 -0.1399 -0.2344 -0.1676
18571W        W22169  10.470   4.654   9.567 -0.1224  0.1628 -0.0379
18572W        W22170   6.169   9.546   0.018 -0.0937 -0.0340  0.0286
18573W        W22171  12.335  13.428   3.177  0.1147  0.1723 -0.1193
18574W        W22172  13.439  12.834  11.699  0.0130 -0.0634  0.5703
18575W        W22173   0.436   8.854  14.107  0.3871 -0.3592 -0.1880
18576W        W22174  15.033   3.519   3.828  0.2509  0.2845  0.0049
18577W        W22175   7.172   1.242   5.888  0.0017  0.1771  0.1554
18578W        W22176   0.080  14.619   5.601  0.2528 -0.0524  0.3044
18579W        W22177   5.949   9.480  10.970  0.3437  0.0587 -0.1855
18580W        W22178  13.991   2.124  14.805 -0.1278  0.1831  0.3079
18581W        W22179  13.620  11.866  10.247  0.0606  0.0299  0.1079
18582W        W22180   5.733  12.003   5.474  0.0001  0.3847  0.1504
18583W        W22181   0.449  11.691   2.098 -0.2302  0.1600  0.5315
18584W        W22182   3.957  11.645   9.288  0.0151  0.1153 -0.3392
18585W        W22183   0.838  11.235   6.062 -0.5549 -0.1001  0.0091
18586W        W22184   1.002   8.467  13.280 -0.2627 -0.3287  0.1482
18587W        W22185   3.177   1.969   8.450 -0.2515 -0.1286 -0.2482
18588W        W22186   7.893   1.888  11.479 -0.0810 -0.2601 -0.0810
18589W        W22187   6.191  13.024  14.720 -0.0384  0.1316  0.0358
18590W        W22188  14.301   5.461   0.602 -0.1243 -0.1538 -0.2776
18591W        W22189   0.667  10.988   8.437  0.2087  0.0809  0.0773
18592W        W22190  13.573   3.469   5.145  0.1463 -0.0423 -0.0878
18593W        W22191   0.306  14.368   5.920  0.0693 -0.3022  0.0622
18594W        W22192  14.631   5.154   6.806 -0.4949  0.0299  0.0005
18595W        W22193   2.889   8.363   9.769 -0.1764 -0.1861  0.0093
18596W        W22194  13.744  14.362   5.728  0.3867 -0.0384 -0.0144
18597W        W22195   1.722  10.336   0.755  0.0914 -0.2559  0.0888
18598W        W22196   2.224   7.290  11.238 -0.0350 -0.0948 -0.2068
18599W        W22197   6.410   3.754  12.120  0.0582  0.2316  0.0546
18600W        W22198   3.112   9.242  16.291  0.2153  0.2864  0.0743
18601W        W22199  14.529   5.959   6.751  0.2568  0.2371  0.0163
18602W        W22200   1.388   0.067  10.015 -0.2121  0.1000 -0.3210
18603W        W22201  10.552  16.046   5.778 -0.0998 -0.1309  0.1495
18604W        W22202   9.637  13.728   8.486  0.0382 -0.0033 -0.1028
18605W        W22203  10.212  14.920   1.341 -0.0276 -0.0415 -0.2492
18606W        W22204  10.235  13.029  14.453  0.2256  0.0637 -0.4028
18607W        W22205  14.258  15.494  12.863  0.1696  0.0242 -0.1982
18608W        W22206  15.248   0.812   0.308  0.1200 -0.0987 -0.1263
18609W        W22207   6.243  15.731  12.753  0.0011 -0.0179 -0.0298
18610W        W22208   2.379   3.550   3.293 -0.1462  0.1937 -0.1335
18611W        W22209  10.571  13.237  14.118  0.1181  0.0513  0.2444
18612W        W22210  11.323  11.394   5.239 -0.0873  0.1128  0.2349
18613W        W22211  11.910  12.957   4.446 -0.0507 -0.1364 -0.0011
18614W        W22212   9.807   5.021   7.255  0.0810 -0.1940  0.1487
18615W        W22213  14.655  10.349  11.753 -0.0155 -0.1366 -0.0930
18616W        W22214   1.715   5.503   2.790 -0.2578  0.0640 -0.0695
18617W        W22215   4.566   5.783   2.969  0.3338  0.0560 -0.3817
18618W        W22216   0.158   1.362  11.254  0.2087 -0.0126 -0.0056
18619W        W22217   8.658   1.916   2.747 -0.1828  0.0346  0.2300
18620W        W22218   6.500   1.663   7.412  0.3164  0.3551 -0.1038
18621W        W22219   8.353   4.742   2.286  0.2762  0.1012 -0.1260
18622W        W22220   1.844   1.702  10.395  0.2516  0.0205  0.0677
18623W        W22221  11.567  12.252  10.042  0.1858  0.3937 -0.2259
18624W        W22222  14.061   2.808   5.787  0.1813 -0.3910 -0.0572
18625W        W22223   5.401  10.412   0.941  0.0890  0.0391 -0.1921
18626W        W22224   9.717   2.214  14.964 -0.0352 -0.1159  0.1205
18627W        W22225  14.239  13.059  11.787  0.0916  0.0023 -0.1095
18628W        W22226   8.101  13.442   8.372 -0.0230 -0.1733  0.1198
18629W        W22227  16.040   2.475   0.235  0.3281  0.3477  0.1658
18630W        W22228   0.640   7.570   9.664  0.0474  0.0768  0.1268
18631W        W22229   8.441   5.630   5.740 -0.1204 -0.1418 -0.2126
18632W        W22230   3.913   4.015  11.258 -0.0669 -0.1498 -0.2063
18633W        W22231   4.657  13.309  13.827 -0.2724 -0.2922 -0.0203
18634W        W22232   1.509   3.570  16.352  0.0478  0.0671 -0.1777
18635W        W22233  13.386   4.145   6.811  0.0545  0.2277  0.2592
18636W        W22234   9.792   9.555  16.011 -0.1652 -0.0168 -0.1707
18637W        W22235  13.990   7.131   1.333 -0.2225  0.1982 -0.0515
18638W        W22236   3.213   4.031   5.231  0.1613  0.1206  0.0246
18639W        W22237   1.184  15.862   9.620 -0.0246 -0.0541  0.1159
18640W        W22238   0.709  15.915   9.561 -0.1334 -0.1455  0.1205
18641W        W22239  13.750   7.502   4.375  0.1341 -0.2589 -0.3118
18642W        W22240   2.966   5.506  15.802 -0.2016  0.2578  0.3400
18643W        W22241   7.326   7.886  10.652 -0.1861  0.3321 -0.1215
18644W        W22242   6.029   8.608   5.384 -0.0969  0.0067 -0.1288
18645W        W22243  12.114  14.944   7.184 -0.1072  0.1859  0.0976
18646W        W22244  11.649   9.007   0.001  0.0521 -0.0540  0.0593
18647W        W22245   1.382  12.003   7.231  0.3562  0.1450 -0.0929
18648W        W22246   1.965  10.080   3.416  0.1101 -0.1920  0.2834
18649W        W22247  15.102  14.763  10.501 -0.1893 -0.0791 -0.1125
18650W        W22248   2.278  10.367   6.788  0.0548  0.4911  0.1632
18651W        W22249  16.000  15.929   4.455  0.0890 -0.0318 -0.1618
18652W        W22250   3.925   1.405  13.685  0.0766  0.1012 -0.0295
18653W        W22251  10.607   7.225  10.453  0.0789  0.2093  0.3426
18654W        W22252   4.366   0.556   3.550 -0.1035  0.1067 -0.0677
18655W        W22253  10.524  11.899   2.977  0.1535 -0.1602 -0.0743
18656W        W22254   4.807  16.233   5.127  0.1873 -0.0365  0.0091
18657W        W22255  13.457   7.381  12.227  0.0057 -0.0098 -0.1447
18658W        W22256  13.556   5.252  10.809 -0.1369 -0.2093 -0.4574
18659W        W22257   5.427   6.177   2.898 -0.2869 -0.1683 -0.2378
18660W        W22258   9.593  15.645  15.641 -0.2259  0.1928 -0.1262
18661W        W22259   1.356  11.710  16.258 -0.0722  0.0664  0.0743
18662W        W22260   1.013   3.816   5.088  0.0865 -0.0170  0.0643
18663W        W22261   5.534   7.307  14.072  0.1897  0.1586  0.2836
18664W        W22262   4.916  16.080  14.487 -0.1406  0.0677 -0.2148
18665W        W22263   6.395  11.971  14.068  0.0894  0.0045 -0.1067
18666W        W22264  11.036  14.663   2.433  0.1502 -0.0843 -0.1537
18667W        W22265   3.903  14.794   8.534  0.0510 -0.0510  0.0350
18668W        W22266   4.133  15.398  13.654  0.0186 -0.0928  0.0001
18669W        W22267  16.218  13.063   6.078 -0.1158 -0.0161 -0.1748
18670W        W22268  13.203   7.341  15.911  0.0617  0.1987 -0.0116
18671W        W22269   6.227  15.277  13.009  0.0225 -0.1242  0.1935
18672W        W22270   1.775  15.815   7.424 -0.3527  0.1200  0.1639
18673W        W22271   4.132   7.477   1.940  0.2794 -0.2479  0.1785
18674W        W22272   3.163  15.907   3.247 -0.0624  0.2633  0.1788
18675W        W22273   6.182   2.832   9.307  0.4465  0.0892  0.1459
18676W        W22274   7.732  16.183   7.335 -0.0285 -0.0996 -0.0289
18677W        W22275   4.302   3.350   3.543  0.3094  0.0976 -0.2696
18678W        W22276   2.167   0.058   7.913 -0.2240 -0.2857  0.1342
18679W        W22277  12.656   5.274  10.352 -0.1452  0.1455 -0.2141
18680W        W22278   4.508   1.368   9.537 -0.1268  0.2895  0.0743
18681W        W22279   5.655   7.091   2.702  0.0360  0.0470 -0.1044
18682W        W22280   0.670  11.635  13.263  0.0972  0.0073  0.0473
18683W        W22281   3.097   8.312   0.977 -0.1366 -0.0659 -0.2946
18684W        W22282  11.971   4.556  16.193 -0.1910 -0.2388 -0.0097
18685W        W22283   1.974   4.830   1.684 -0.2508  0.0296  0.2157
18686W        W22284  13.040   4.519  13.400 -0.2295 -0.1565  0.1547
18687W        W22285   9.049   6.466  15.305 -0.1336  0.2055  0.0597
18688W        W22286  11.289  12.331   5.578 -0.2662  0.0621  0.0402
18689W        W22287  13.432   9.958   0.686  0.1842 -0.0466 -0.1681
18690W        W22288   1.121  15.736  15.564 -0.1465  0.0255 -0.2004
18691W        W22289  12.393  13.594  13.032 -0.1541  0.2278 -0.3444
18692W        W22290   0.114   7.247   5.766  0.0836 -0.2211 -0.2598
18693W        W22291  13.037   2.845  10.413  0.5393  0.0690 -0.1536
18694W        W22292   6.453   9.661   1.231  0.1745  0.4054 -0.0641
18695W        W22293   5.972   2.461   4.453 -0.1039 -0.1972  0.0034
18696W        W22294   5.190   7.783   5.976  0.0274 -0.0061 -0.2160
18697W        W22295  11.111   4.546   4.669  0.2648 -0.0437  0.0378
18698W        W22296   9.425   9.635  15.660  0.1298 -0.0096  0.2033
18699W        W22297  15.586  13.481   8.460  0.1085  0.1464  0.2452
18700W        W22298   6.855  15.575   9.243  0.0668 -0.0941 -0.1331
18701W        W22299   3.361  11.454  13.724  0.0740 -0.0792 -0.0741
18702W        W22300   3.197   3.503   4.918  0.1374 -0.1341  0.1047
18703W        W22301  11.612   4.768   0.184 -0.0242 -0.2854  0.2790
18704W        W22302  13.647   2.438   7.120  0.0871 -0.1031  0.0372
18705W        W22303  14.553   0.665  16.369  0.2886  0.4150  0.2714
18706W        W22304   3.972  10.552   1.827 -0.0236  0.1437 -0.1394
18707W        W22305  14.816   4.523   8.422  0.2358 -0.0305 -0.1368
18708W        W22306   2.529   4.803  12.090  0.3135  0.4199  0.1568
18709W        W22307   6.940  10.927   8.813 -0.0243 -0.2006  0.1623
18710W        W22308  14.416   7.204   0.203 -0.0132 -0.1497  0.0314
18711W        W22309   7.477  12.441   3.603 -0.1017 -0.2269  0.0029
18712W        W22310  13.289  16.220   6.648 -0.0974 -0.0660  0.1641
18713W        W22311  10.202  14.317   7.395  0.0392  0.1737  0.0600
18714W        W22312  16.251   0.272   1.286 -0.1570 -0.2003  0.0468
18715W        W22313  14.945   2.166   0.407 -0.0921 -0.1804  0.0328
18716W        W22314   9.920   9.849  13.330 -0.1919 -0.1023  0.0141
18717W        W22315   3.337   2.557  11.832  0.0570 -0.1133 -0.0288
18718W        W22316   9.332  10.959  15.517 -0.0709  0.0046 -0.1927
18719W        W22317   5.183   7.257  10.958  0.0540  0.1089  0.1158
18720W        W22318   0.656   0.795   8.285  0.2785  0.0412  0.0700
18721W        W22319   6.259  10.762   1.303  0.0093 -0.1502 -0.1040
18722W        W22320  16.137   4.563   2.767  0.5114 -0.0516 -0.1289
18723W        W22321   8.924   9.504   4.171  0.1892  0.1742  0.0444
18724W        W22322  10.408  11.609   3.756 -0.0844 -0.1265  0.1727
18725W        W22323  15.014   2.957   7.806 -0.0719  0.0352  0.1187
18726W        W22324   5.296   8.647   5.931 -0.1192  0.0385 -0.3105
18727W        W22325  10.608  14.559  10.804  0.1318 -0.1847 -0.1327
18728W        W22326  15.660   1.595   3.918  0.4327 -0.0980  0.0974
18729W        W22327   3.855   2.904  16.223 -0.0688  0.1097  0.3637
18730W        W22328  10.339  11.760  15.350  0.0344 -0.4060 -0.1875
18731W        W22329   5.340  14.934  11.867 -0.0066  0.0651 -0.1668
18732W        W22330   3.145   9.736  13.536 -0.1634 -0.2628  0.2625
18733W        W22331   9.612  15.165  14.291  0.2863 -0.0694  0.3153
18734W        W22332  11.079  15.023   2.755 -0.0747 -0.0956 -0.0837
18735W        W22333   1.396  13.657   7.517 -0.0519  0.0085 -0.2551
18736W        W22334   9.464   4.733   7.011 -0.1124 -0.1524  0.2003
18737W        W22335   7.553   9.322  10.196  0.0126 -0.2497  0.0574
18738W        W22336   4.171  13.904   9.397 -0.0698 -0.1930  0.0641
18739W        W22337   7.419  15.875   5.579 -0.2828  0.2874 -0.0970
18740W        W22338  10.386  10.103   5.575  0.0800 -0.2941  0.0242
18741W        W22339   6.716  13.567  14.423 -0.0111 -0.3237  0.0857
18742W        W22340   5.600   4.666   6.306  0.3828 -0.1084 -0.1178
18743W        W22341  13.566  15.448   9.844 -0.1803  0.1320 -0.0106
18744W        W22342   7.168   2.960  15.134 -0.0503 -0.0675 -0.0036
18745W        W22343   9.414   3.048  10.603 -0.1492 -0.1712 -0.2737
18746W        W22344  13.326  13.563  13.827 -0.0131  0.2173  0.1800
18747W        W22345  10.228   4.038  14.030 -0.1887  0.0170 -0.3207
18748W        W22346   2.465  11.107   0.760 -0.1615  0.0616  0.1087
18749W        W22347  13.862  16.258   0.517  0.3756 -0.1413 -0.1087
18750W        W22348   2.657   3.512   0.747  0.1657  0.0796 -0.1181
18751W        W22349   8.492  15.548   4.089 -0.0322  0.0915 -0.0803
18752W        W22350   9.745   3.449   2.690 -0.1233  0.1654  0.2387
18753W        W22351   1.077   4.500  15.519 -0.0952  0.2824  0.1795
18754W        W22352   1.046   7.785   6.664  0.1823 -0.2142 -0.1536
18755W        W22353   4.746  15.581  14.768 -0.2158 -0.2388  0.4937
18756W        W22354   0.921   2.664  12.424  0.0940 -0.0226  0.0297
18757W        W22355   0.237   7.591   7.526 -0.0450 -0.2937  0.3605
18758W        W22356   9.679   6.782   6.599 -0.1049  0.1257 -0.1596
18759W        W22357  12.107  14.022   8.433 -0.0243 -0.0521  0.0073
18760W        W22358   4.675  11.708   9.913 -0.1581 -0.0550  0.0838
18761W        W22359   4.500  10.613   8.315  0.2323  0.1972 -0.1845
18762W        W22360   6.027   6.538   3.425 -0.2913  0.1579  0.3767
18763W        W22361   4.877   2.826  12.390 -0.0309  0.0045 -0.2638
18764W        W22362  14.405  14.355  13.672 -0.2035 -0.2881  0.0423
18765W        W22363   0.148  14.709   5.031  0.1093 -0.1191  0.0128
18766W        W22364   0.595  15.058  15.425 -0.0842  0.2536  0.0238
18767W        W22365  11.690  16.324  15.932 -0.0650  0.1610  0.2713
18768W        W22366  13.970   6.033  11.916  0.1415  0.2985  0.0846
18769W        W22367   3.531   5.332  13.218  0.2537 -0.0723 -0.3075
18770W        W22368   6.745   8.542   9.354  0.1780  0.0795  0.2021
18771W        W22369   2.605  10.099   0.160  0.1329  0.0637  0.0822
18772W        W22370   1.125   2.497  10.014 -0.0301  0.1449 -0.1045
18773W        W22371   1.263   0.276   3.641 -0.2312 -0.1177 -0.3330
18774W        W22372   0.761  14.314   0.602  0.1244 -0.0836 -0.0831
18775W        W22373  10.792   7.677   5.524  0.0824  0.2104  0.1221
18776W        W22374  11.845  11.421   1.665  0.1990 -0.1057  0.1917
18777W        W22375  14.325   1.285   9.623 -0.1680 -0.0718  0.0551
18778W        W22376  15.116   0.381   7.217 -0.4646  0.0535 -0.0973
18779W        W22377  13.392  10.864   0.374 -0.1354  0.1628  0.1869
18780W        W22378  10.372   1.551   0.064  0.4487  0.0473  0.0528
18781W        W22379   1.355   6.658  13.924  0.2858 -0.0727 -0.2628
18782W        W22380   3.544   9.779   0.606  0.1552 -0.0166  0.0103
18783W        W22381   9.325   6.669  14.753  0.2388  0.1129  0.1375
18784W        W22382   9.382  16.115  13.926 -0.2129 -0.0709  0.1787
18785W        W22383   6.497   7.411   7.139 -0.0912 -0.0708 -0.2194
18786W        W22384   4.637   8.292   1.474 -0.1048 -0.1206 -0.0215
18787W        W22385  11.610  12.454   7.243  0.1647 -0.2779  0.1798
18788W        W22386   9.117   6.271   2.650 -0.0837 -0.1427  0.2680
18789W        W22387  12.881   0.334   3.810  0.0461 -0.0579 -0.1426
18790W        W22388  14.041   1.717  12.429 -0.0856  0.1584  0.1212
18791W        W22389   0.436   0.290   2.398  0.2453 -0.3772  0.3458
18792W        W22390   8.679   5.174   3.923 -0.1456 -0.0688  0.2345
18793W        W22391  15.295  10.072   8.977 -0.3271 -0.2874  0.2917
18794W        W22392   1.273  12.078   5.421  0.0551 -0.1809 -0.5625
18795W        W22393   3.493  13.376  10.735 -0.2596  0.1651 -0.1837
18796W        W22394   3.366   0.336   1.157  0.0571  0.1442  0.1189
18797W        W22395   5.732  15.123   3.333 -0.0285 -0.3655  0.0201
18798W        W22396   4.251  15.579  14.953  0.1074  0.1095  0.0294
18799W        W22397   2.934   5.508  14.964 -0.0230  0.2286 -0.1142
18800W        W22398  12.436   8.755  12.711  0.2265  0.0187 -0.1474
18801W        W22399   7.014   2.331   4.013 -0.0804 -0.1082  0.0347
18802W        W22400  11.540   9.477   9.601 -0.3453  0.0287 -0.1310
18803W        W22401  11.149   2.035   9.034  0.3332 -0.3001 -0.1348
18804W        W22402  12.063   5.347  12.257  0.0034  0.1523 -0.0619
18805W        W22403  10.318   7.108   8.444 -0.1290 -0.0947  0.1627
18806W        W22404   6.781  14.996   7.262  0.1732 -0.0155 -0.0453
18807W        W22405  11.451   2.512  12.065  0.3500  0.0247  0.1360
18808W        W22406  15.481  11.576  11.435 -0.5407 -0.0850 -0.1583
18809W        W22407   8.153   8.964   5.778  0.1546  0.1670  0.0948
18810W        W22408  12.936   5.788   4.934  0.0636 -0.2575  0.0956
18811W        W22409   6.696  14.975  10.484  0.0642 -0.1814 -0.0618
18812W        W22410   7.570   7.015  13.296  0.0203  0.1675 -0.1386
18813W        W22411  13.950   3.145  10.921  0.3472 -0.1726  0.2235
18814W        W22412   6.861   5.158   3.163 -0.0045 -0.0326  0.2566
18815W        W22413  13.424   4.527   2.745 -0.1188  0.4047 -0.2682
18816W        W22414   5.375   6.094   2.384 -0.0475  0.2682  0.0660
18817W        W22415  15.338  13.528  10.389  0.2633 -0.2625 -0.0964
18818W        W22416   4.370  12.147  12.736  0.2079 -0.3198  0.1671
18819W        W22417   9.524   3.310   6.784  0.0747  0.0840  0.1899
18820W        W22418   8.799   1.081   6.812  0.1595  0.1031 -0.0180
18821W        W22419  14.220   5.122   2.409  0.0958  0.1776  0.0780
18822W        W22420  10.436   1.091   4.936  0.0291 -0.0737 -0.1822
18823W        W22421   3.958   5.574   5.143  0.0139  0.1474  0.2744
18824W        W22422   5.897   4.579  15.551 -0.3865  0.0200  0.0691
18825W        W22423  15.489   6.097  12.581  0.1338  0.1939 -0.1067
18826W        W22424  10.969   7.467   1.442  0.1436 -0.1416 -0.0872
18827W        W22425   7.464   6.491   3.492  0.1305 -0.0308 -0.1946
18828W        W22426   1.629   3.004  14.552  0.1488  0.0598  0.0226
18829W        W22427   0.370   5.594   2.107  0.0709 -0.0043 -0.1609
18830W        W22428   9.649  15.632   6.397  0.1393 -0.3499  0.3302
18831W        W22429   1.354   7.810  13.303 -0.3067 -0.0506  0.2756
18832W        W22430   2.993   1.138   6.904 -0.1324 -0.0113 -0.0854
18833W        W22431   9.323   0.871   7.022 -0.1569 -0.2483  0.2843
18834W        W22432  10.374  12.016   7.381  0.3624 -0.2065  0.3360
18835W        W22433   0.076  12.633   7.315  0.2101 -0.0844 -0.0853
18836W        W22434   6.266   7.661  12.362 -0.1187 -0.4460 -0.2685
18837W        W22435   6.609   7.040   1.203  0.0952  0.1932 -0.2886
18838W        W22436  10.836   5.359  11.352 -0.1574 -0.0287  0.1293
18839W        W22437   8.674   6.020   3.323  0.3028  0.1062  0.0239
18840W        W22438  15.561   6.958   3.905  0.2411  0.0229  0.0174
18841W        W22439   7.249  11.231  11.501 -0.0468 -0.1589  0.1672
18842W        W22440   9.972  10.092   0.220 -0.0777  0.3498 -0.3167
18843W        W22441  13.884  10.130   4.742  0.0821 -0.0637 -0.2269
18844W        W22442   0.709  10.528  16.012  0.1468 -0.2081 -0.1222
18845W        W22443  14.417   7.513  15.101  0.0205  0.0406 -0.3474
18846W        W22444  12.688  13.231  11.795 -0.0164  0.0413  0.1135
18847W        W22445   2.871   7.865  16.002  0.0445  0.0026 -0.0408
18848W        W22446  16.250  16.297   2.579  0.3808 -0.1838  0.0230
18849W        W22447   8.014   2.147  16.393 -0.1586 -0.1555  0.0524
18850W        W22448   4.302   0.939   3.900 -0.0248 -0.0717  0.2386
18851W        W22449   7.612   2.877   5.566  0.2650 -0.2500 -0.1091
18852W        W22450   2.824   3.996   2.541  0.0074 -0.0160 -0.1003
18853W        W22451  11.841   6.099   0.300 -0.0169  0.2110 -0.0058
18854W        W22452  13.573  12.054   8.346  0.1481 -0.0162  0.0198
18855W        W22453   1.977   1.727   0.074  0.0103  0.0255 -0.1791
18856W        W22454   2.684   5.828   8.658 -0.0767 -0.1505 -0.1158
18857W        W22455   8.016   6.416   1.834  0.1594 -0.3524  0.1227
18858W        W22456   4.149  12.060   6.915  0.3251 -0.1434  0.0775
18859W        W22457   7.528   2.676   7.270  0.1720 -0.2412 -0.1291
18860W        W22458   9.309   0.245   3.661 -0.0465  0.1651  0.0817
18861W        W22459   2.793  11.524   5.485 -0.0392  0.1590  0.0196
18862W        W22460   3.496   5.886   8.583  0.2970  0.0922  0.1999
18863W        W22461   0.651  15.271  13.296  0.3228  0.1687  0.2491
18864W        W22462   1.024   9.902   0.021  0.0636 -0.2685 -0.1198
18865W        W22463   3.118   6.347   1.974 -0.3358 -0.0608 -0.0630
18866W        W22464  15.967  15.707   1.140  0.1871  0.3178  0.0205
18867W        W22465  11.694   1.318   6.230  0.1350 -0.0917 -0.3949
18868W        W22466   4.634  14.207   3.376 -0.0034  0.0392  0.2794
18869W        W22467  10.705   1.893   4.394 -0.0458  0.2482  0.2620
18870W        W22468   5.405   1.540  14.351 -0.0070 -0.5246 -0.0996
18871W        W22469   3.913   0.717   3.295  0.5711  0.1327 -0.1261
18872W        W22470   9.726   2.203  14.084  0.0434  0.0392  0.2873
18873W        W22471   5.966   2.674   1.014 -0.2388 -0.2286  0.0405
18874W        W22472   1.236   2.125  12.088  0.0452  0.0222 -0.2233
18875W        W22473   2.694   9.933   4.848 -0.5908  0.2838  0.0989
18876W        W22474   3.406   1.793   6.442  0.2404 -0.0408  0.0819
18877W        W22475  11.174  14.800  15.119  0.1889  0.1148 -0.0464
18878W        W22476  13.045   8.434   7.996  0.1317  0.0274 -0.0524
18879W        W22477   0.565   9.862  10.697  0.1908  0.0069 -0.0297
18880W        W22478  11.463   8.188   9.141  0.0643 -0.2706  0.1326
18881W        W22479  12.633   1.591   4.559 -0.1320 -0.4210  0.0092
18882W        W22480   0.025  12.167   8.586 -0.0534  0.3216 -0.0129
18883W        W22481   3.477   4.879   7.456  0.0473 -0.1071  0.3080
18884W        W22482  11.040   2.835   2.669 -0.0113 -0.0199 -0.2271
18885W        W22483  13.417  14.466  12.798 -0.0923 -0.1136 -0.1844
18886W        W22484   5.800  13.156  11.464 -0.1392 -0.0442 -0.4082
18887W        W22485   6.620  12.322   6.666 -0.3160  0.4227  0.1019
18888W        W22486  11.437   2.385  15.492 -0.0474  0.2219 -0.1596
18889W        W22487  15.559   4.725   7.744 -0.1542  0.1012  0.0106
18890W        W22488  13.785   4.208  14.577 -0.1870 -0.0422  0.0394
18891W        W22489  13.635   5.041  10.313  0.2520 -0.1486  0.0066
18892W        W22490  11.496   1.742   0.824 -0.0543  0.1065  0.3158
18893W        W22491   4.930   2.976  13.858  0.0255  0.0442 -0.0882
18894W        W22492   8.467  14.590  12.968  0.0185 -0.0825  0.2898
18895W        W22493  11.177   5.213  15.949  0.1124  0.0412 -0.3143
18896W        W22494   5.209  10.164   6.761 -0.0446  0.3560  0.0279
18897W        W22495   5.415   0.788   1.612  0.2953 -0.1180  0.0901
18898W        W22496   8.187   7.009  13.378 -0.2480  0.0194  0.1262
18899W        W22497   6.492   5.535   9.195  0.0712 -0.2016 -0.0787
18900W        W22498  16.017   4.087   0.493 -0.1386 -0.0280  0.1787
18901W        W22499  16.168   9.352   0.564  0.2743 -0.1150  0.1477
18902W        W22500   2.553   2.029   5.181 -0.0309 -0.0174 -0.0632
18903W        W22501  11.897  15.852  16.039 -0.1895  0.0976  0.0586
18904W        W22502   4.257  14.605   1.238  0.0715  0.0314  0.3971
18905W        W22503  15.169   2.885   0.234 -0.2201 -0.2809  0.1828
18906W        W22504   1.381   1.973  12.932  0.0839  0.1420 -0.3398
18907W        W22505  12.315   4.172   8.228 -0.1829 -0.0643  0.0670
18908W        W22506   5.350   7.254  15.333 -0.2045  0.1345 -0.2146
18909W        W22507  12.524   8.570  10.600  0.0338 -0.1482  0.0003
18910W        W22508   3.188   2.101   6.106 -0.1264 -0.2821 -0.1287
18911W        W22509   4.088   3.422   4.014  0.4628  0.0500 -0.0647
18912W        W22510   2.903   0.435  15.171  0.2253 -0.2400  0.1689
18913W        W22511  13.253   5.160   6.599 -0.1627  0.1495  0.0896
18914W        W22512  12.960   7.994  11.836  0.1118 -0.2312  0.1557
18915W        W22513  13.406   0.231   7.117 -0.1804  0.4666  0.0952
18916W        W22514   3.592   3.317   4.009 -0.0948  0.2709  0.0336
18917W        W22515   2.339  14.658  14.776  0.2413  0.0387  0.0978
18918W        W22516   6.789   4.070  11.238  0.1652  0.1449  0.4968
18919W        W22517   9.216  12.110   6.097 -0.3571  0.4096 -0.0892
18920W        W22518  10.878   4.208  12.912  0.0292 -0.1272  0.0424
18921W        W22519   0.598   0.860  14.089  0.1872  0.2898 -0.2215
18922W        W22520  14.670   9.128  13.000  0.0374 -0.0479  0.0343
18923W        W22521   8.072   9.821  11.109 -0.1728 -0.3405  0.1840
18924W        W22522   9.636  11.440   3.882 -0.1457  0.1228  0.4254
18925W        W22523  13.999  14.971  12.376  0.3006  0.2742 -0.0801
18926W        W22524  10.354   6.208   2.933  0.0340 -0.0737 -0.1399
18927W        W22525  14.144  11.304   2.130 -0.0215  0.1022  0.1556
18928W        W22526  10.480   9.221   1.764 -0.0608  0.2154  0.1172
18929W        W22527   1.980  16.379  12.342  0.0964  0.0612  0.1250
18930W        W22528   5.945   6.265   2.341  0.0046 -0.0196  0.1198
18931W        W22529  13.752  12.728   7.507 -0.1282 -0.0084 -0.1268
18932W        W22530   3.698  10.475   2.269  0.1828 -0.1355 -0.1777
18933W        W22531   2.999  14.166   1.861  0.1050 -0.0645 -0.0344
18934W        W22532  10.464   8.080   2.955  0.0885  0.1499 -0.1266
18935W        W22533  10.234   6.594   3.257 -0.3530  0.3542  0.2656
18936W        W22534  12.710   6.016   0.784 -0.2790 -0.0624  0.0884
18937W        W22535  15.462   7.388  10.663  0.0503  0.0686  0.0089
18938W        W22536   3.299  14.710   0.130 -0.0504 -0.0782 -0.1640
18939W        W22537  11.438  14.508   6.235 -0.1810 -0.2362  0.0415
18940W        W22538   7.758  15.758   2.445 -0.2305  0.0586  0.0996
18941W        W22539   4.736   7.304  11.175 -0.4427 -0.2682 -0.2118
18942W        W22540   9.352   0.575   8.008 -0.0681  0.0451  0.0222
18943W        W22541   8.950   7.628  11.115 -0.1282  0.1534 -0.0209
18944W        W22542  14.720   3.226   1.551  0.0392 -0.1733 -0.1201
18945W        W22543   6.004  15.866  15.722 -0.4278  0.3851  0.4269
18946W        W22544   6.150  16.076   3.839  0.0414  0.2639 -0.2611
18947W        W22545  10.320   0.385   3.071  0.3853  0.1172 -0.0017
18948W        W22546  12.814   0.185  10.541  0.0268  0.0414 -0.2324
18949W        W22547   9.524  11.415  15.715  0.0091 -0.0781  0.1262
18950W        W22548   9.952   1.899  14.424  0.0329  0.2289  0.0879
18951W        W22549   3.607   6.597   3.238 -0.1043 -0.0428 -0.0678
18952W        W22550   4.536  12.439   2.871  0.0141 -0.1375  0.0977
18953W        W22551  14.139  11.949  16.348 -0.1066  0.2069 -0.3052
18954W        W22552   5.542   7.070  15.739 -0.2597 -0.0048 -0.4395
18955W        W22553   5.703   1.828   8.097 -0.0987  0.0736  0.1270
18956W        W22554   8.219   3.919   7.472 -0.1226 -0.2922 -0.1058
18957W        W22555   4.207   6.694   4.473 -0.2280  0.2164  0.2845
18958W        W22556  13.664  15.821   4.836  0.2615  0.2997 -0.0926
18959W        W22557  10.711  14.680  14.872 -0.2440  0.0829  0.2970
18960W        W22558   0.777  12.445   2.304 -0.1489 -0.1944  0.0915
18961W        W22559   0.324   9.401  14.838 -0.0661 -0.2081  0.0291
18962W        W22560   6.463  13.755   0.680  0.1892  0.3224 -0.2231
18963W        W22561   6.399  11.372   7.979  0.4238 -0.3922 -0.2605
18964W        W22562   7.068   7.044   1.683 -0.0221 -0.0261 -0.2156
18965W        W22563   9.949  12.254   7.402  0.1793  0.1818  0.1503
18966W        W22564   4.033   3.118   9.359  0.1946  0.4199 -0.0552
18967W        W22565   4.626   6.113   0.575 -0.1209  0.0953  0.1765
18968W        W22566  10.974   6.359  15.959 -0.0164  0.1260 -0.0058
18969W        W22567   8.649   3.820   1.959 -0.1863  0.0874  0.0981
18970W        W22568   1.615  15.300   1.435 -0.0362 -0.1927 -0.1857
18971W        W22569  15.145   7.810  14.428  0.3797 -0.0438  0.0137
18972W        W22570   3.453   7.221  14.087  0.1216 -0.3867  0.0294
18973W        W22571   3.196  10.266  13.846 -0.3687  0.2576 -0.0167
18974W        W22572   5.180   8.000   8.738 -0.1501 -0.1335 -0.3141
18975W        W22573  15.078   1.963  14.270  0.3049 -0.2453 -0.1512
18976W        W22574  10.300   5.009  14.812 -0.3106 -0.0074 -0.2735
18977W        W22575  10.170  13.202   4.060 -0.2916  0.0451  0.1088
18978W        W22576  14.890   6.974   3.255 -0.0256  0.1871 -0.1562
18979W        W22577   5.997   9.374   6.865 -0.0243  0.1685  0.1082
18980W        W22578  12.701   3.590   2.077  0.5903  0.0496 -0.0168
18981W        W22579   6.946  12.210   3.457 -0.1038 -0.1014  0.2446
18982W        W22580  15.845  12.819   2.535 -0.1912 -0.3012  0.0338
18983W        W22581   5.058  14.916  13.373 -0.1518 -0.3415  0.5272
18984W        W22582   2.038  11.067   8.334 -0.0412  0.1817  0.1323
18985W        W22583  11.971  10.881   6.308  0.2522 -0.1660  0.0351
18986W        W22584   1.349   4.354   0.558 -0.0766  0.3504 -0.2776
18987W        W22585   1.421   9.890   0.773 -0.0210 -0.2148 -0.0066
18988W        W22586  15.837  11.153   0.890 -0.3457 -0.5308  0.1858
18989W        W22587  11.803  13.231  11.969  0.0707  0.0296 -0.1363
18990W        W22588  12.052   3.852  13.904 -0.0548  0.2640  0.0187
18991W        W22589   3.545   1.626   0.079  0.1285  0.0742 -0.1183
18992W        W22590   6.480   9.317   0.489 -0.1112  0.1002 -0.0341
18993W        W22591   0.419   6.139   9.922  0.1680 -0.0689  0.0528
18994W        W22592   3.782   8.651   4.329  0.0190 -0.0703  0.2085
18995W        W22593   4.734   6.745   8.368  0.2607 -0.0863  0.1511
18996W        W22594   4.595  14.759  14.320 -0.1631 -0.0475 -0.2677
18997W        W22595   5.775   9.340   5.915  0.1980 -0.1044  0.0220
18998W        W22596   2.303  12.134   3.963 -0.0641  0.0576  0.2357
18999W        W22597   5.445  10.436   5.434  0.0229  0.0556  0.1583
19000W        W22598   0.470   6.135   8.879 -0.1914 -0.1362 -0.0587
19001W        W22599  11.681  13.711  11.791 -0.3417 -0.2631  0.0902
19002W        W22600   8.129   2.901   1.857 -0.2453  0.2036 -0.0809
19003W        W22601   4.457   6.846   7.485  0.4150  0.0214 -0.2094
19004W        W22602  10.294  11.115  14.137  0.1672 -0.0764  0.2229
19005W        W22603  11.135   3.753   4.088  0.3051 -0.2137 -0.1689
19006W        W22604   3.644   8.813   2.768 -0.1743 -0.1019  0.0422
19007W        W22605   3.488   7.438   8.225 -0.0433 -0.0114  0.0967
19008W        W22606  13.214   2.518  11.879 -0.0823  0.0619  0.0351
19009W        W22607   5.688  10.269  13.518 -0.0485 -0.0847 -0.0247
19010W        W22608  10.255   8.233   7.766 -0.0879  0.1733  0.1359
19011W        W22609   0.304   0.422   7.268 -0.0912 -0.2247  0.1322
19012W        W22610  12.106  13.465   0.737  0.2553  0.1333 -0.2266
19013W        W22611  14.241  14.474  13.240 -0.0331 -0.0083 -0.3383
19014W        W22612   5.122   8.658   9.567 -0.1738  0.1530  0.1348
19015W        W22613   4.988  11.743  15.605  0.1732 -0.0132 -0.2175
19016W        W22614  12.687   6.805  13.978 -0.4033 -0.2345 -0.2583
19017W        W22615  16.235   5.174   0.957 -0.3468 -0.0489 -0.4237
19018W        W22616   1.178  11.308   0.040 -0.0010  0.0536 -0.2006
19019W        W22617  12.859   8.679  12.890 -0.0647 -0.1255  0.1965
19020W        W22618  15.087   2.151  16.245  0.0631 -0.3733 -0.0614
19021W        W22619   1.360   3.311   6.332 -0.0219 -0.1674  0.0915
19022W        W22620   9.482  14.945  12.859  0.1880  0.1218  0.2694
19023W        W22621   5.897  13.052   3.853  0.1126  0.1485  0.0336
19024W        W22622  16.103   2.655   6.368 -0.0854 -0.1976  0.1709
19025W        W22623   6.205   9.580  10.122  0.0500 -0.2779 -0.0388
19026W        W22624   5.753   8.364  12.190  0.0255  0.2625 -0.0440
19027W        W22625  12.242   1.422  15.143 -0.1661 -0.2517 -0.2457
19028W        W22626   3.633   5.113  12.792  0.2741 -0.2605 -0.1984
19029W        W22627   8.333   0.463   8.275  0.0070  0.0515  0.0942
19030W        W22628   1.243   5.230   4.475 -0.2463 -0.1528 -0.0218
19031W        W22629  11.840   3.145   1.941  0.0148 -0.1975  0.0950
19032W        W22630   2.279  13.024   4.466 -0.1367 -0.1499  0.0094
19033W        W22631   7.767   4.840   4.487 -0.2192 -0.2768 -0.0788
19034W        W22632   8.974  15.220  11.811  0.0278 -0.1152  0.2106
19035W        W22633   3.998  13.073   7.173  0.0414  0.4806  0.1238
19036W        W22634  13.249   9.014   1.890 -0.5156  0.2337  0.1031
19037W        W22635  12.063  13.820  13.404 -0.2075 -0.3313  0.1043
19038W        W22636   0.878  15.035  14.450 -0.1084 -0.1063  0.1956
19039W        W22637  11.827   2.026   0.565  0.0823  0.1095 -0.1163
19040W        W22638  14.326   0.450   8.637  0.1756 -0.0599 -0.0393
19041W        W22639  14.335  11.424   0.320  0.1588 -0.2970 -0.2096
19042W        W22640   2.467  14.919  15.633 -0.1662 -0.1697  0.0244
19043W        W22641   7.260  12.696   5.378  0.0842  0.1742 -0.0902
19044W        W22642   4.617  14.524   4.470  0.3029  0.0397  0.0214
19045W        W22643   9.845   0.735  11.162  0.3424  0.4912  0.2732
19046W        W22644   0.046  11.058   6.548 -0.0894  0.0966 -0.1731
19047W        W22645   1.120   2.685   2.154 -0.1551  0.0494 -0.3134
19048W        W22646   5.630   2.993  10.495  0.1939  0.1375 -0.3826
19049W        W22647  14.349   8.932   6.850  0.2561 -0.1444  0.1296
19050W        W22648   1.489  14.146  10.612  0.3542 -0.0828  0.5211
19051W        W22649   1.724   2.866   2.081  0.5303  0.0569 -0.0048
19052W        W22650   6.718  14.633  11.191 -0.0763  0.1893  0.2059
19053W        W22651  14.626  16.170  10.367  0.3499 -0.2078  0.3379
19054W        W22652   5.171   7.108  11.879  0.3762  0.1300 -0.0219
19055W        W22653   8.487   2.509  10.187 -0.2096  0.1642  0.1219
19056W        W22654   4.415   5.559   7.067 -0.1839  0.0088  0.0766
19057W        W22655  10.563   3.457  13.347 -0.4434 -0.0200  0.0089
19058W        W22656  13.322  14.116   8.344  0.1465 -0.0889 -0.0422
19059W        W22657  12.369  12.464  15.659  0.5945  0.2663  0.1461
19060W        W22658  13.881   5.990   5.491 -0.3507  0.1840 -0.2954
19061W        W22659   7.618   4.761   3.633  0.2522  0.1384 -0.2183
19062W        W22660   0.634   0.545   4.044 -0.1360 -0.0305 -0.0469
19063W        W22661   3.120   1.549   3.998  0.1901 -0.0611  0.1206
19064W        W22662   7.651   6.642  14.957  0.2203 -0.0825 -0.1710
19065W        W22663  15.074   8.727  12.890 -0.0969  0.3761  0.2253
19066W        W22664  12.170   1.470   3.391 -0.1844  0.1451  0.1121
19067W        W22665  10.157  10.823   3.684 -0.1425  0.0923  0.2234
19068W        W22666  12.557   1.658   6.483 -0.2606  0.1771  0.0902
19069W        W22667   9.055  12.532   4.654 -0.1171  0.2193 -0.1661
19070W        W22668   5.738   9.393  13.595  0.0208 -0.0716  0.0447
19071W        W22669  10.186  14.460   2.192  0.0109 -0.0427 -0.2045
19072W        W22670  12.572   8.046  14.859  0.1710  0.1782 -0.0239
19073W        W22671   3.037  10.757  11.683 -0.2331 -0.1044 -0.6813
19074W        W22672   0.164   6.825  15.896  0.0848  0.1180 -0.1427
19075W        W22673   8.151  15.965   7.427  0.1795 -0.0658  0.0595
19076W        W22674   5.507   1.207   1.134  0.4126  0.1173  0.0317
19077W        W22675   4.199   5.933  14.776  0.0960 -0.2736 -0.0141
19078W        W22676   1.163   8.700   5.220  0.0963  0.0279  0.1374
19079W        W22677   7.605  14.734  13.221 -0.0883 -0.1493 -0.1478
19080W        W22678   5.171   2.139  15.827  0.3042 -0.1260  0.2840
19081W        W22679  14.965   4.330   0.212 -0.3077 -0.0906 -0.2584
19082W        W22680   4.982  14.428   0.256  0.4853 -0.1084  0.0876
19083W        W22681   9.867  15.233  12.723 -0.5026 -0.0314 -0.2589
19084W        W22682   8.967   7.767   6.103  0.0438  0.1277  0.1581
19085W        W22683   3.827  11.065   8.677 -0.0335 -0.3044 -0.0094
19086W        W22684  11.599   3.371  14.802 -0.0219 -0.0193 -0.1159
19087W        W22685   8.137   4.451   0.436  0.1365  0.0143 -0.2464
19088W        W22686   7.265  11.416  10.915 -0.3120  0.3879 -0.3123
19089W        W22687   6.353  11.971   2.238 -0.0178  0.1395  0.3807
19090W        W22688   6.616  11.929  10.281 -0.0263 -0.2488  0.2895
19091W        W22689  15.481   1.794  11.934  0.0768 -0.0293 -0.2213
19092W        W22690  10.012  11.870   2.218  0.1312 -0.0096 -0.0308
19093W        W22691  15.936   5.779   2.023  0.0843 -0.1913  0.1856
19094W        W22692  15.218   6.318  12.963  0.5976 -0.1697  0.2284
19095W        W22693   7.251  14.552   6.206 -0.1103  0.2212 -0.0662
19096W        W22694   9.832   2.265   6.047 -0.1624 -0.2861  0.0194
19097W        W22695  10.959   9.279   8.134 -0.2926  0.2795 -0.0627
19098W        W22696  11.433   7.218   4.243 -0.1022  0.0046  0.0234
19099W        W22697   1.918   8.793  13.158 -0.2169 -0.0620  0.0618
19100W        W22698  13.448   7.403   0.866 -0.0326 -0.2681  0.1223
19101W        W22699   0.706  13.996   9.690  0.0943 -0.2624 -0.0543
19102W        W22700  15.098  12.084   7.195 -0.0046  0.2028  0.5110
19103W        W22701   5.955  12.287   1.845  0.0292 -0.0141 -0.1501
19104W        W22702   8.645   1.823  10.945 -0.2465  0.1884  0.0365
19105W        W22703  15.258  12.866   8.953  0.0508  0.0916  0.1504
19106W        W22704   7.836   8.570   3.698  0.0826 -0.1787  0.2887
19107W        W22705  11.114   3.439  16.318 -0.1036 -0.2063  0.2322
19108W        W22706   1.691   6.972   6.842  0.1317  0.2002  0.1241
19109W        W22707  11.519   4.718   6.447 -0.4811  0.2450 -0.1015
19110W        W22708   8.510  10.315   1.210 -0.2236  0.0640  0.3013
19111W        W22709   6.058  13.062   9.451  0.0692  0.1419 -0.3331
19112W        W22710  11.352   4.859  10.571  0.0098 -0.0830  0.1552
19113W        W22711   1.969   5.706   1.533  0.1380  0.0679 -0.0507
19114W        W22712   6.860   7.839   6.091 -0.1315  0.1120  0.0064
19115W        W22713  10.538  12.060  12.848 -0.0723 -0.0742 -0.2555
19116W        W22714   7.384   0.587  13.296  0.2278 -0.0252  0.1667
19117W        W22715  14.305   1.918   4.616 -0.1158  0.1985 -0.0037
19118W        W22716   5.961  12.378  15.900  0.1383  0.1357  0.1887
19119W        W22717  14.518   3.024   0.056 -0.0143  0.0348 -0.5769
19120W        W22718   8.621  12.918   6.261  0.1785  0.0015 -0.0653
19121W        W22719   6.839  10.324  11.804  0.1345 -0.0875  0.1201
19122W        W22720  11.229   0.198   0.667 -0.2478  0.2693  0.3655
19123W        W22721  14.439  15.601   1.229 -0.1494  0.0607 -0.2845
19124W        W22722   4.051  12.439   3.656  0.0600 -0.1902 -0.1265
19125W        W22723  12.520  11.992  14.391 -0.0179 -0.0094 -0.2840
19126W        W22724   9.434  14.943   1.141  0.1151 -0.3768 -0.0397
19127W        W22725  14.591  15.826   4.214  0.0964 -0.0080  0.1614
19128W        W22726   6.777  16.366   9.479  0.1189 -0.4481  0.2511
19129W        W22727   7.163   7.500   5.970  0.2443 -0.0694 -0.2613
19130W        W22728   1.732  15.583  10.860 -0.2453 -0.2723  0.1826
19131W        W22729  14.998  13.341   6.670 -0.0355 -0.0655 -0.0474
19132W        W22730   4.698   6.263   8.354 -0.0535 -0.1249  0.1145
19133W        W22731   7.874   5.816  13.340  0.3148  0.0620 -0.1323
19134W        W22732   3.117  14.091   6.453  0.0887  0.2276  0.0362
19135W        W22733  10.520  12.029   3.454 -0.0766 -0.0052 -0.0710
19136W        W22734   5.085   4.494   5.687  0.0780  0.1199  0.0074
19137W        W22735   8.128   4.049   3.878  0.0185  0.0196  0.2349
19138W        W22736  11.996   9.019  13.652 -0.0984  0.4299  0.2417
19139W        W22737   4.682   2.395   9.417 -0.0396  0.2006 -0.2429
19140W        W22738  13.942   4.197   8.519 -0.0734  0.1195 -0.1315
19141W        W22739  14.785   4.795   1.895 -0.2478  0.4041  0.3498
19142W        W22740   1.709   2.096   3.709 -0.1414  0.1791  0.0350
19143W        W22741   9.339   4.475   5.823 -0.2760  0.1935  0.1297
19144W        W22742   0.296   9.295   4.502 -0.1549  0.1684 -0.0042
19145W        W22743  12.131   5.767   2.040  0.2900  0.0614  0.0566
19146W        W22744   7.829   0.412  13.144  0.1319 -0.0127  0.0328
19147W        W22745  15.154   8.081   2.177  0.1108  0.1018 -0.0614
19148W        W22746  12.006   5.135   2.360  0.3366 -0.0202  0.1771
19149W        W22747   0.702   6.094  10.883 -0.2764  0.1687 -0.0082
19150W        W22748   4.485  14.274   2.771 -0.1342  0.0922  0.2325
19151W        W22749  16.067   9.226   4.671 -0.0779  0.2714 -0.1217
19152W        W22750   2.012   5.631   8.089  0.0654 -0.2805  0.1290
19153W        W22751  12.936  15.929   2.267 -0.2172  0.2126 -0.1464
19154W        W22752  12.952   1.516  11.422  0.0797  0.0187  0.1639
19155W        W22753   7.366  10.034   8.457  0.1268 -0.1953 -0.0876
19156W        W22754  16.278   7.493   8.090 -0.0027 -0.0286 -0.0777
19157W        W22755   9.128   4.199   4.648  0.1441 -0.0675  0.0404
19158W        W22756  13.725   3.834  13.307 -0.0597  0.0549  0.2493
19159W        W22757  10.614   9.715  12.736  0.2272 -0.1011  0.0084
19160W        W22758   7.743  14.165   0.494  0.0353  0.2233  0.1420
19161W        W22759   9.956  14.578   0.148  0.2290  0.4144 -0.1055
19162W        W22760   2.290  13.811   0.521 -0.0807  0.1033 -0.2453
19163W        W22761   8.210   3.167   3.719 -0.0487 -0.3025 -0.1317
19164W        W22762   2.530   7.959  16.322  0.1912  0.0065  0.2537
19165W        W22763   6.532  12.185   3.813  0.2844 -0.0657 -0.0769
19166W        W22764   2.943   3.873   0.957  0.2362 -0.2429 -0.1998
19167W        W22765  11.088  15.620  14.692  0.3437  0.0161  0.1804
19168W        W22766   6.210   2.435  11.569 -0.1046 -0.2098 -0.4074
19169W        W22767  13.297   1.127   1.274  0.1395 -0.1468  0.1085
19170W        W22768   7.432   2.863   3.618 -0.2027 -0.3025  0.3006
19171W        W22769   1.492   9.145   0.652  0.1587  0.0541  0.4683
19172W        W22770  12.324   5.050   2.907  0.3852  0.1653  0.1395
19173W        W22771   5.602   9.199   0.949 -0.0360  0.1032 -0.0926
19174W        W22772   8.209  12.207  13.941 -0.0610  0.3780  0.4170
19175W        W22773  14.592  12.648  13.586  0.0149 -0.1721  0.2200
19176W        W22774   0.879   5.142   1.208 -0.2442 -0.1593  0.0681
19177W        W22775   0.231  13.102   4.197  0.1219 -0.0929 -0.2426
19178W        W22776   8.089  16.351   3.844 -0.0314 -0.0674 -0.1620
19179W        W22777  14.915   3.579  13.489 -0.2065  0.1733  0.2938
19180W        W22778   9.013  15.977  10.119 -0.2856  0.1006 -0.3587
19181W        W22779  14.865   7.971   0.574  0.0072  0.0744  0.1351
19182W        W22780   6.545   0.997  13.613 -0.1009 -0.1230 -0.2286
19183W        W22781  13.990   5.663   0.298 -0.0276  0.1294  0.0531
19184W        W22782   2.292   7.797  12.386 -0.0837 -0.0695 -0.0351
19185W        W22783   1.693   4.646   4.874 -0.1297 -0.2272  0.0977
19186W        W22784   5.653   7.206   0.919  0.1142  0.1246  0.0598
19187W        W22785   3.992  10.007   4.022  0.1155  0.1377 -0.1067
19188W        W22786   1.315   1.859  14.587 -0.0648  0.4434 -0.2472
19189W        W22787   8.541  16.143   2.101 -0.1830 -0.0614  0.0856
19190W        W22788  12.814   7.416  10.025  0.0118 -0.3183 -0.0143
19191W        W22789  14.455  11.345   9.791 -0.1533 -0.1911  0.0918
19192W        W22790  16.128  10.930   2.374  0.2664  0.1434 -0.0583
19193W        W22791  15.248  16.076   5.849  0.1183  0.3661 -0.1346
19194W        W22792   2.553  14.815   0.544 -0.1898 -0.2248 -0.1970
19195W        W22793   3.994  12.300  12.454  0.0526 -0.0505 -0.0273
19196W        W22794   4.908  16.254  10.750  0.0070  0.3983 -0.0548
19197W        W22795  10.694   3.074   3.505 -0.0402  0.1542 -0.0067
19198W        W22796  12.476   8.383   8.038 -0.1219 -0.0520 -0.0925
19199W        W22797   3.430   0.516  15.338  0.0989  0.1321 -0.1865
19200W        W22798   8.258  15.059   7.904  0.1307  0.0995  0.4393
19201W        W22799   3.449  13.576   4.212 -0.1969  0.2236 -0.0449
19202W        W22800   0.912  15.427   9.462 -0.0262  0.1879  0.0417
19203W        W22801   9.968   5.870   1.310 -0.1260  0.1239  0.0393
19204W        W22802  15.936  13.972   8.584  0.1274  0.1594  0.0571
19205W        W22803   9.257  10.331  16.274 -0.0808 -0.1595  0.2622
19206W        W22804  10.641   5.076   7.461  0.1809  0.3010  0.0919
19207W        W22805   3.603  12.455   5.914  0.1526 -0.1138  0.4044
19208W        W22806  12.571   0.994   2.734  0.0091 -0.0480  0.1330
19209W        W22807   4.038   7.100  14.555  0.1671 -0.1231  0.0627
19210W        W22808  10.654   6.775   9.552  0.1447  0.2538 -0.0914
19211W        W22809   5.879   4.086   7.825 -0.0684  0.2959 -0.0392
19212W        W22810   3.015   8.919   6.578 -0.0323 -0.1270  0.1642
19213W        W22811   5.892   6.923   7.851 -0.0053 -0.0901  0.0638
19214W        W22812  10.972   3.230   6.714  0.1805  0.2644  0.1111
19215W        W22813   5.443   3.193  13.737  0.3859  0.0636 -0.0199
19216W        W22814  15.949   3.268   0.215  0.0363 -0.0115 -0.1799
19217W        W22815   6.217   4.290   0.143  0.1977  0.2361 -0.2605
19218W        W22816  15.745   3.369   8.339  0.1414  0.2998  0.1566
19219W        W22817   0.212  10.506  10.987  0.0465 -0.3028 -0.0597
19220W        W22818  15.188   5.641   1.664 -0.0746 -0.1094 -0.0439
19221W        W22819   6.869  15.338   8.791 -0.0028 -0.2505  0.0863
19222W        W22820   1.653  15.111   9.564 -0.0143 -0.1274 -0.1831
19223W        W22821  12.593  11.096   0.731 -0.1840 -0.1527  0.2764
19224W        W22822   1.822   7.296   8.814  0.1928  0.2152 -0.1736
19225W        W22823   2.261  10.526   0.781  0.0326 -0.3351 -0.0634
19226W        W22824   6.363   6.020   6.993  0.1622  0.0820 -0.1616
19227W        W22825   2.966   0.569  11.721  0.0115 -0.0648  0.3365
19228W        W22826   8.573   2.645  11.247  0.3345 -0.1907 -0.0682
19229W        W22827   5.185  15.005   5.180  0.1520  0.1306  0.0059
19230W        W22828  13.132   7.805  13.941  0.1843 -0.1535 -0.0568
19231W        W22829  14.682  11.962  12.435  0.1693 -0.0607 -0.2167
19232W        W22830  12.737   4.011  13.455 -0.2796  0.2705  0.3342
19233W        W22831   3.030  13.309   3.049 -0.3136 -0.0232 -0.4779
19234W        W22832   7.066   0.965  15.425 -0.1269 -0.1612 -0.1258
19235W        W22833   8.290   1.865   6.483  0.0759 -0.2267 -0.4090
19236W        W22834  13.505   2.861  12.887 -0.0256  0.0160 -0.1140
19237W        W22835   7.656   9.857   2.115  0.2820 -0.4730  0.3069
19238W        W22836  11.351  11.099   7.791 -0.1022 -0.1564  0.0056
19239W        W22837   9.520  10.602  15.909  0.0461  0.1642  0.1062
19240W        W22838   2.179   2.523  12.626 -0.1122  0.3061 -0.2949
19241W        W22839   9.565  10.996   3.314  0.0567 -0.0756 -0.1502
19242W        W22840   9.167   6.838   9.356 -0.0614  0.2127  0.1398
19243W        W22841   8.717  14.157  11.378 -0.4942  0.1080  0.0691
19244W        W22842  15.473  13.552   3.363 -0.2247  0.0553 -0.2049
19245W        W22843   5.928   7.300  15.917 -0.3598 -0.3142  0.1620
19246W        W22844  14.262  14.987  11.303 -0.1092 -0.2659 -0.0709
19247W        W22845   9.306   5.050  13.564  0.4633  0.3774 -0.1201
19248W        W22846  16.318  12.155  13.710  0.5144 -0.0470 -0.2535
19249W        W22847   5.251  10.066   1.312  0.0807 -0.1761  0.0668
19250W        W22848   5.293   2.775   6.105 -0.2532 -0.0695  0.1109
19251W        W22849  13.006   2.932   2.596  0.1022 -0.2554 -0.2148
19252W        W22850  13.404   4.129   0.176  0.0523 -0.0931  0.1188
19253W        W22851   1.745   2.142   0.247 -0.2834 -0.1590 -0.0303
19254W        W22852   6.160  13.800   2.881 -0.1682 -0.0266 -0.2440
19255W        W22853   4.774  10.800   5.112  0.3426 -0.0316 -0.3182
19256W        W22854   7.551  12.779   9.385  0.0622  0.1486  0.3253
19257W        W22855   8.014  10.659   3.199 -0.0075  0.1052  0.1062
19258W        W22856  13.968  15.277   8.000  0.2669 -0.3701 -0.1625
19259W        W22857  15.749  14.205  13.723  0.1207 -0.0473 -0.0301
19260W        W22858   0.412   1.308  12.710  0.0305  0.3054 -0.0430
19261W        W22859   7.796   1.586  13.908  0.2436  0.2089  0.1513
19262W        W22860   6.704   8.954   2.585 -0.0838  0.1227  0.0223
19263W        W22861   2.585  11.956  14.773 -0.1699 -0.0641 -0.1571
19264W        W22862   8.433   8.557  12.038 -0.1082  0.0896 -0.0168
19265W        W22863   0.507   4.470   3.332  0.0268 -0.0207 -0.0096
19266W        W22864  10.682   5.194  16.237  0.2724 -0.0574  0.3241
19267W        W22865  10.765   0.193  12.618 -0.0652 -0.0547 -0.0073
19268W        W22866   3.889   0.288  12.107 -0.1553 -0.0885 -0.0345
19269W        W22867  13.547   2.756   5.664  0.1545 -0.1842  0.1696
19270W        W22868   2.114   2.043  12.505 -0.1515  0.0745 -0.1290
19271W        W22869  13.821   6.527  10.028  0.2329 -0.1506  0.0845
19272W        W22870  14.292  13.718   6.826  0.1016  0.1379 -0.0247
19273W        W22871   0.572   9.831   6.102  0.0261  0.0281 -0.2183
19274W        W22872   8.023   3.430   1.878 -0.0155  0.2927 -0.2131
19275W        W22873  14.837   9.199   6.683  0.1643 -0.2648 -0.3594
19276W        W22874   6.724   3.781  14.142 -0.2369 -0.1216  0.2702
19277W        W22875  13.202  10.787   5.030 -0.1026  0.4066 -0.1035
19278W        W22876  14.501  14.188  10.326 -0.2305  0.0630  0.4227
19279W        W22877  14.232  15.735  14.078 -0.0036  0.2167  0.0098
19280W        W22878   2.996  10.687   1.714 -0.2954  0.0923 -0.0907
19281W        W22879  15.463   5.193   4.637  0.1069 -0.2251  0.1971
19282W        W22880  10.015  13.538  11.755  0.2251 -0.0466 -0.0790
19283W        W22881   0.637   9.027   6.100 -0.1742 -0.0022  0.1816
19284W        W22882  13.997   7.913   3.900  0.2266 -0.2538 -0.0477
19285W        W22883   3.400   5.691  11.100  0.2028  0.0396  0.1673
19286W        W22884   8.086   8.094   6.027 -0.2016  0.0860 -0.0522
19287W        W22885   5.300   9.914  12.290  0.0365 -0.0044  0.0008
19288W        W22886   9.969  12.995  15.436  0.3778  0.0930 -0.2134
19289W        W22887  15.478   8.192  15.444  0.4209  0.0734 -0.0417
19290W        W22888  14.960   7.302   9.567  0.1158 -0.4106  0.0639
19291W        W22889   5.754  14.463   5.077  0.0212  0.1599 -0.1479
19292W        W22890   8.717   4.783   0.604  0.2001  0.3819  0.2374
19293W        W22891  15.459   5.794   1.214  0.5005 -0.0351  0.0578
19294W        W22892  15.414   3.627   9.586 -0.4247  0.2034 -0.2015
19295W        W22893   1.475   1.598   2.932 -0.0800  0.0150  0.3499
19296W        W22894   4.351   7.227  13.642 -0.0517  0.0905  0.2356
19297W        W22895   6.896   1.635  10.065  0.0939  0.0588 -0.1171
19298W        W22896   8.067  14.713  16.290 -0.0930 -0.2501 -0.3006
19299W        W22897   2.900  11.486  14.923 -0.1804  0.2380 -0.1018
19300W        W22898   0.529   1.046  10.166 -0.0009 -0.0685  0.2148
19301W        W22899   5.922  10.866   0.270 -0.1639  0.3259  0.1245
19302W        W22900   6.913  11.023   0.300  0.1648 -0.3183 -0.0174
19303W        W22901   3.013   8.326  13.651 -0.1140  0.2107 -0.4193
19304W        W22902  12.129   9.386  10.656  0.1468 -0.1699  0.1928
19305W        W22903   3.103   5.971  14.874 -0.0627 -0.0622  0.0762
19306W        W22904   2.768   2.968  12.172 -0.0135  0.3530  0.1558
19307W        W22905   3.673   7.233   5.719 -0.1651 -0.0329  0.0048
19308W        W22906   8.483   7.847   0.785  0.3738 -0.1927  0.0035
19309W        W22907  15.306   5.941   9.940 -0.1289  0.2811  0.1167
19310W        W22908   8.852   7.276   6.111 -0.0794 -0.0587  0.2010
19311W        W22909   4.465   0.896  15.439  0.0090  0.0285  0.2149
19312W        W22910   2.619  12.413   4.939  0.3528  0.2709  0.1927
19313W        W22911  10.762  15.090  10.548 -0.0441 -0.0335  0.2466
19314W        W22912  10.974  10.970   1.490  0.1320  0.0341  0.0205
19315W        W22913   1.724  15.021   5.208 -0.0854  0.6207 -0.2524
19316W        W22914  10.486   5.892   9.290 -0.0759 -0.1286 -0.1562
19317W        W22915   3.539  10.208  10.856 -0.1966 -0.2315 -0.1438
19318W        W22916   4.535  10.447   2.004  0.0418 -0.2097  0.2344
19319W        W22917  13.033  11.579   2.660  0.3212  0.2477 -0.0643
19320W        W22918   2.947   9.409  14.342  0.1233  0.2460 -0.5268
19321W        W22919  11.935   3.790   4.564 -0.1744 -0.2973 -0.0986
19322W        W22920   7.212  10.351   4.509  0.0214 -0.1924 -0.0654
19323W        W22921   5.300   7.944   2.028 -0.0304  0.1068  0.0471
19324W        W22922   2.782  14.133   2.432  0.1148 -0.1622 -0.2804
19325W        W22923   4.557   7.903   4.577 -0.0170 -0.3856  0.2788
19326W        W22924  15.432   9.833  15.431 -0.2602 -0.2529 -0.0447
19327W        W22925  14.888   5.138   2.234 -0.0149 -0.2493 -0.0247
19328W        W22926   2.698  12.252   9.033 -0.1275  0.1399  0.0494
19329W        W22927   6.227   9.754   2.342  0.3321  0.1720 -0.1141
19330W        W22928  15.281   5.698  12.805  0.2262  0.2345 -0.2049
19331W        W22929  16.151   5.479   6.253  0.1448  0.0897 -0.2439
19332W        W22930   3.003   4.577  11.165 -0.0153  0.2098 -0.0347
19333W        W22931   2.222   1.591  15.423 -0.0146 -0.1917 -0.1854
19334W        W22932   1.411   3.130  13.023 -0.3300  0.0258 -0.0243
19335W        W22933   3.403   8.112  16.372 -0.2367  0.1434  0.0431
19336W        W22934  15.132   7.158   0.599  0.0238 -0.4769 -0.0109
19337W        W22935  14.133  12.537  13.490  0.0043 -0.0816  0.0331
19338W        W22936   7.761   8.205   2.039 -0.0062  0.1248  0.2158
19339W        W22937   3.944  13.438  15.160 -0.1656 -0.4012 -0.1314
19340W        W22938  14.769  14.894   2.400 -0.1390  0.0299 -0.1264
19341W        W22939   0.018  11.816   0.321  0.1646  0.0508  0.0182
19342W        W22940  15.644   7.621  11.520  0.1027  0.2321  0.0079
19343W        W22941   2.914   4.239   0.597  0.0714  0.1329  0.1835
19344W        W22942   3.361   3.713   2.543 -0.2202 -0.2313  0.0473
19345W        W22943   4.166  13.082  13.102 -0.0931  0.2283  0.2370
19346W        W22944   3.019  10.203  12.203 -0.0747  0.0532 -0.3402
19347W        W22945  14.557  13.469   6.434 -0.3262  0.3187 -0.2750
19348W        W22946  10.510  16.381  15.511  0.0341 -0.0888 -0.1233
19349W        W22947  11.481  14.573   2.646 -0.1138 -0.0434 -0.0332
19350W        W22948   3.635   1.256   6.210 -0.2468  0.0952  0.0179
19351W        W22949   4.939  11.181   3.707  0.1256 -0.1990 -0.1207
19352W        W22950   7.266  15.248  13.943 -0.0329  0.1282  0.1726
19353W        W22951   7.283   4.177   7.280 -0.0625  0.2629  0.0285
19354W        W22952   9.656   1.880  13.663  0.2763 -0.0873 -0.4726
19355W        W22953   4.873  10.079   2.237  0.0080  0.3969  0.2277
19356W        W22954   2.244   4.183  14.432 -0.1566 -0.0446 -0.4262
19357W        W22955  15.819   4.989  12.504  0.0441  0.0422  0.0637
19358W        W22956   2.591   5.345  12.088  0.0408  0.1123 -0.0563
19359W        W22957   7.936   2.512   7.675  0.3331  0.0200 -0.3872
19360W        W22958   4.481  12.495  12.330  0.1841 -0.1446  0.0045
19361W        W22959   7.122   5.648   0.673 -0.3713 -0.1426 -0.1291
19362W        W22960   3.254   5.292   6.678 -0.1083 -0.0619  0.1725
19363W        W22961  16.279  15.500  13.814  0.0516  0.1493 -0.2090
19364W        W22962  13.942   4.067   4.310 -0.2954  0.1635 -0.1543
19365W        W22963   0.981   0.407   6.720 -0.1147  0.1532  0.0561
19366W        W22964   6.749  15.379  14.816  0.0381 -0.0722 -0.1181
19367W        W22965  14.782   9.674   6.692  0.0374 -0.1996  0.0343
19368W        W22966   3.890   9.718   1.679 -0.1892 -0.2762  0.0759
19369W        W22967  13.624  10.797  15.614  0.0989  0.1029 -0.3403
19370W        W22968  11.738   1.886  10.800  0.1419 -0.1498  0.0403
19371W        W22969  12.968  12.261  15.853 -0.1477 -0.1597  0.1635
19372W        W22970   9.343   9.623  11.908  0.0381  0.0988 -0.2066
19373W        W22971   4.535  11.322   3.380 -0.1028 -0.0015  0.1048
19374W        W22972  11.497  13.612  13.987  0.2148  0.2105  0.0886
19375W        W22973   7.646   1.087   5.022 -0.0716  0.0560  0.0252
19376W        W22974   2.520   9.687   7.001 -0.1067 -0.3247 -0.1280
19377W        W22975  11.638  15.948  10.933  0.1286 -0.0170 -0.0041
19378W        W22976   0.792   0.982   7.763 -0.0879  0.1209  0.0066
19379W        W22977   8.920   3.658  15.367  0.1859  0.0093 -0.0208
19380W        W22978  12.566   9.630  15.504  0.2428 -0.4022 -0.0447
19381W        W22979   1.057   3.501  10.298 -0.1421 -0.1614 -0.1735
19382W        W22980  10.189   9.361  11.592 -0.1603  0.0768 -0.0491
19383W        W22981   3.764   4.989   1.983 -0.0171 -0.3857 -0.2218
19384W        W22982  16.000   0.634  16.259 -0.0167  0.2544 -0.0099
19385W        W22983  11.076   5.712  11.020 -0.0729 -0.1829  0.2943
19386W        W22984   5.220  15.470   0.642 -0.1018  0.3441  0.1021
19387W        W22985  15.063   6.984   3.954 -0.2650 -0.2033 -0.1596
19388W        W22986  12.067  11.240  14.680 -0.1749  0.0402 -0.1112
19389W        W22987   5.680   0.348  13.412 -0.0898 -0.2885  0.1266
19390W        W22988  12.911   1.726  13.305 -0.2282  0.0567 -0.1266
19391W        W22989  11.331   4.091  10.723 -0.0566  0.1850 -0.2187
19392W        W22990  11.938  10.467   5.985 -0.3374 -0.0326  0.2558
19393W        W22991  12.668   2.438  11.843  0.1779  0.1320  0.1908
19394W        W22992  14.147  15.049   6.955  0.0270  0.0998  0.2163
19395W        W22993   1.105   6.689   0.430 -0.0183  0.0157  0.1662
19396W        W22994   7.321   8.662   9.173  0.0608 -0.0411 -0.1988
19397W        W22995  13.881   5.944   8.786 -0.1124  0.1890  0.2027
19398W        W22996  13.818   4.677   5.407 -0.1823 -0.1435  0.4555
19399W        W22997  15.172  15.528   4.807  0.1762  0.0153 -0.2056
19400W        W22998   9.401   5.062  15.259 -0.0699 -0.2286 -0.0915
19401W        W22999   8.860  11.815  16.203 -0.2658 -0.0374 -0.0510
19402W        W23000  14.090  15.824   6.121 -0.1547 -0.0131  0.1500
19403W        W23001  11.625  12.668  16.066 -0.0167  0.0400 -0.1124
19404W        W23002   0.115   9.738   0.460  0.0230 -0.1094 -0.0849
19405W        W23003   7.106  12.435   6.585  0.0830 -0.1168 -0.0205
19406W        W23004  10.104   2.384  15.614  0.1958  0.1019 -0.0842
19407W        W23005  16.109   0.687   4.313  0.0374 -0.0576 -0.1188
19408W        W23006   6.979   3.920   6.936 -0.1192 -0.2198 -0.1872
19409W        W23007  15.936   5.202  11.115  0.0661 -0.1378  0.1319
19410W        W23008   2.814   8.422  15.959 -0.0032  0.0464 -0.2016
19411W        W23009  16.000  11.529   4.323  0.3325 -0.2354  0.1058
19412W        W23010  10.485  15.423  16.353  0.2059  0.4427 -0.2281
19413W        W23011  11.495   0.591   8.143  0.0431  0.3104 -0.1034
19414W        W23012  12.390  12.965   5.383  0.0493  0.0123  0.0084
19415W        W23013   6.028   8.482   6.860  0.1757  0.3094 -0.2134
19416W        W23014   2.134   2.456  13.854 -0.0572  0.1267  0.2856
19417W        W23015   2.212   4.241   5.465  0.0830 -0.0341  0.0659
19418W        W23016   9.958   3.268   9.895 -0.0452  0.0691  0.0494
19419W        W23017   4.766   4.505   0.315 -0.0309  0.2977  0.0609
19420W        W23018  14.176  10.973   9.644  0.2866 -0.0872  0.1702
19421W        W23019   0.915   7.181   5.108  0.0385  0.0648  0.3412
19422W        W23020   1.276   3.975   3.996 -0.0237 -0.1190  0.0177
19423W        W23021  14.110   7.952   2.967  0.0946  0.0023 -0.1416
19424W        W23022   0.816  10.408   3.931 -0.4237 -0.4140  0.1152
19425W        W23023   2.119  10.834  14.087 -0.1359  0.0978 -0.0583
19426W        W23024  16.162  16.049   8.456  0.1967 -0.0630 -0.0921
19427W        W23025   9.442  14.443   8.103  0.0811  0.1632  0.0909
19428W        W23026  14.598   8.636   7.239 -0.3266  0.2680 -0.3124
19429W        W23027   7.280  13.786  12.367  0.6204  0.3270 -0.1814
19430W        W23028  13.972   3.326   9.603 -0.3367  0.0082 -0.0580
19431W        W23029  15.517   4.197  13.491  0.1675 -0.0304 -0.0933
19432W        W23030  14.818   1.259   7.604  0.1476  0.1286  0.1348
19433W        W23031   7.044   4.379   3.617 -0.1895  0.3340  0.0181
19434W        W23032  12.775   5.806  11.648  0.0689 -0.3539  0.3231
19435W        W23033  13.134   2.077  16.121  0.3156 -0.1777  0.2354
19436W        W23034   6.011   6.886  15.528 -0.1933 -0.3997  0.1375
19437W        W23035  15.975   4.495  15.320  0.1334  0.0606  0.0526
19438W        W23036  14.596  13.711   7.877  0.1428  0.3347  0.2342
19439W        W23037  15.833   6.467  12.674  0.0092  0.0280  0.0261
19440W        W23038   7.018  11.398  14.238 -0.3674  0.0855 -0.2011
19441W        W23039   4.178  11.609   3.073 -0.0113  0.0661 -0.1057
19442W        W23040   6.410   1.774   1.041  0.0588 -0.4379  0.2230
19443W        W23041   9.577   8.860  10.227 -0.0848  0.1301 -0.1188
19444W        W23042  11.437   2.901  15.060  0.0157  0.3525  0.0817
19445W        W23043  12.712  10.232  11.566  0.1198 -0.1419  0.0913
19446W        W23044   5.352   5.634   5.912 -0.1201 -0.2823  0.0611
19447W        W23045  10.332   1.643   6.175  0.0934 -0.2979  0.1179
19448W        W23046   6.699   7.005   0.314 -0.2316  0.0150 -0.0300
19449W        W23047   8.680   8.881  13.473  0.3880  0.2954  0.2469
19450W        W23048   0.091   9.803  15.396  0.0809 -0.2547 -0.1944
19451W        W23049   7.967   1.437  15.207 -0.0639  0.2679  0.2241
19452W        W23050   5.250   7.781  14.091  0.1482  0.2256  0.2746
19453W        W23051  12.513  13.841   8.776  0.2111 -0.1625  0.1228
19454W        W23052   1.263  14.770  11.207 -0.3287 -0.0826  0.0231
19455W        W23053  12.910   4.617   7.632  0.3439 -0.0210  0.1241
19456W        W23054   6.309   0.039  14.708  0.2069 -0.0804  0.2566
19457W        W23055  10.531   6.745   6.374  0.1789  0.0253  0.2342
19458W        W23056  16.003   0.822   0.953  0.0561 -0.0225 -0.2205
19459W        W23057  14.418  13.290  10.687 -0.2970 -0.0059 -0.1751
19460W        W23058  15.112   9.934  11.763  0.1372  0.0877  0.0443
19461W        W23059  14.716   1.742   7.263  0.0561 -0.2194  0.0072
19462W        W23060   2.758  11.098  16.144 -0.2733 -0.0186 -0.3905
19463W        W23061   0.527   1.261  14.970 -0.0194  0.1185  0.1937
19464W        W23062  13.411   7.368  13.863 -0.1115  0.1083 -0.3742
19465W        W23063   6.678   3.892   6.325  0.0098  0.0888  0.1251
19466W        W23064   9.870  15.088  14.768  0.0973 -0.4174  0.0683
19467W        W23065   3.359   8.281   8.895 -0.0538 -0.0709  0.0943
19468W        W23066  14.602  14.196   4.768  0.0874  0.3559  0.1981
19469W        W23067   6.185   7.486  14.622 -0.2043  0.2724 -0.3243
19470W        W23068   1.370  16.376   5.439 -0.2116 -0.0679  0.2798
19471W        W23069   1.626  15.877   1.669  0.3445  0.3343 -0.0260
19472W        W23070  13.337  14.530  10.008  0.1190 -0.3662 -0.1077
19473W        W23071   1.074   3.509   5.480 -0.1432 -0.1006 -0.1750
19474W        W23072   9.039   3.507   4.010  0.0241  0.3385 -0.2279
19475W        W23073   2.673   4.599   7.936 -0.0833 -0.1293  0.2951
19476W        W23074   8.924   0.703   2.559 -0.1449  0.0944  0.0011
19477W        W23075   9.436  11.078  16.066  0.0162  0.0742  0.1090
19478W        W23076   2.678  10.426   6.368  0.0110 -0.0491 -0.0436
19479W        W23077  16.303   4.768  11.227 -0.6175 -0.1246 -0.1670
19480W        W23078   2.530   8.343   9.417  0.1158 -0.0060 -0.1753
19481W        W23079   7.430   9.978  16.176  0.0002 -0.0868 -0.1336
19482W        W23080  13.397   3.871  12.679  0.4119  0.1614 -0.0288
19483W        W23081  15.971   1.164  16.049 -0.0259 -0.3631  0.0965
19484W        W23082  11.453  14.537   2.136 -0.1380  0.1513 -0.0271
19485W        W23083  16.084   7.569   5.211 -0.1736 -0.1913  0.1578
19486W        W23084  15.951   4.117   2.664  0.3175  0.0219 -0.1180
19487W        W23085   0.501   2.847   7.650  0.0548  0.2200 -0.0058
19488W        W23086  15.201   3.926  16.390 -0.0402  0.2687 -0.1051
19489W        W23087  15.454   8.442   3.346  0.0033  0.0051  0.0282
19490W        W23088  10.739   9.656   8.580 -0.2225 -0.1167  0.2291
19491W        W23089  10.174  16.370   1.726  0.0226  0.1042 -0.1222
19492W        W23090   7.705  15.709  14.563  0.2561  0.3077 -0.5298
19493W        W23091  11.700   7.675  13.392 -0.0531 -0.0234 -0.2018
19494W        W23092   8.641   7.401   3.628 -0.3246  0.0075  0.2132
19495W        W23093   8.387   6.119   4.703  0.0698 -0.2569  0.2933
19496W        W23094   7.926  16.207   7.814  0.0208 -0.1763 -0.1621
19497W        W23095   4.841  15.213   8.699  0.0512  0.2141  0.4020
19498W        W23096   0.457  10.153  14.715  0.0456 -0.2050 -0.0304
19499W        W23097   1.797   7.023  15.419 -0.1249 -0.1039  0.0243
19500W        W23098  10.295   7.520   3.712  0.1117 -0.1800 -0.1002
19501W        W23099  11.360  14.842  11.843  0.2277 -0.0094  0.0759
19502W        W23100   0.585  10.688   4.317  0.2349 -0.3167 -0.0244
19503W        W23101  15.144  15.279   5.824 -0.1013 -0.0088  0.1475
19504W        W23102   8.096   7.202  14.448 -0.0848  0.0785 -0.2815
19505W        W23103  12.337  12.727   4.561 -0.0188 -0.1423  0.4684
19506W        W23104   0.039  14.374   2.324 -0.0992 -0.1865  0.0188
19507W        W23105   9.911  15.038   5.367 -0.2883 -0.1945 -0.0064
19508W        W23106   5.079  15.918   2.281 -0.4244  0.1302  0.1013
19509W        W23107   5.519   8.492   8.766  0.3367  0.0900  0.1780
19510W        W23108   2.769   9.556   0.074  0.0190 -0.1208 -0.2220
19511W        W23109   0.610   5.066  13.212  0.3225 -0.0996 -0.2001
19512W        W23110  15.826  12.240  13.909 -0.2907  0.0911  0.0456
19513W        W23111  12.440   2.871  14.226  0.1470  0.2631 -0.0828
19514W        W23112   8.132   5.625   6.592 -0.0282  0.2562  0.1949
19515W        W23113   1.246   1.747  11.758  0.0327  0.3057 -0.1527
19516W        W23114   6.401  14.455   7.996 -0.2367 -0.2230  0.0345
19517W        W23115   0.393   4.441  10.864 -0.2069 -0.0120 -0.2617
19518W        W23116  14.303   6.575   9.863 -0.1186 -0.0958  0.1778
19519W        W23117  11.634  11.754  10.218  0.1552 -0.1015 -0.2587
19520W        W23118  13.274   4.844   7.361  0.1978  0.3271 -0.0976
19521W        W23119   2.811   3.555   1.285 -0.2649 -0.0375 -0.0879
19522W        W23120   4.908   5.179   9.843 -0.0565 -0.2765  0.1578
19523W        W23121  14.408  12.127  15.985 -0.0656 -0.1060 -0.1456
19524W        W23122   9.100   7.526   8.510 -0.4347  0.2921  0.2323
19525W        W23123   3.241   2.945   7.707  0.0725  0.0583  0.1632
19526W        W23124   8.098   4.700   4.813  0.0012 -0.0679 -0.4409
19527W        W23125  15.030   8.922  14.699 -0.1402  0.0986 -0.0641
19528W        W23126   8.047  15.221   4.020  0.0743 -0.4287  0.0017
19529W        W23127   8.072  11.602   2.281  0.3023 -0.1742  0.3471
19530W        W23128  12.336   4.669  14.003  0.0059 -0.2078 -0.0237
19531W        W23129   6.805   2.989   5.314  0.2068  0.0384  0.0012
19532W        W23130  16.187   3.222   9.832  0.0121  0.0708  0.2032
19533W        W23131   2.795  13.630  14.056  0.5109  0.0976 -0.0985
19534W        W23132   2.875   0.237   4.881 -0.2437  0.1102 -0.1262
19535W        W23133   2.695   1.348  10.595  0.0688  0.0722 -0.0258
19536W        W23134  14.727  16.228   9.304 -0.0050 -0.1300  0.1080
19537W        W23135  10.794   3.449  12.332  0.2743 -0.2165 -0.0214
19538W        W23136   3.392  15.539   2.571 -0.0340 -0.1639 -0.1270
19539W        W23137   6.279  13.471   1.175 -0.0407 -0.3716  0.0638
19540W        W23138   9.662  16.282   6.949  0.0768 -0.0344  0.2560
19541W        W23139   3.027   0.817  14.903  0.1971 -0.2551 -0.2432
19542W        W23140   6.900   3.678  16.377  0.0597  0.0312  0.2290
19543W        W23141  13.790  10.144   9.285 -0.1280 -0.1260 -0.1250
19544W        W23142  14.745  12.447   3.631 -0.1154 -0.1988 -0.3187
19545W        W23143   6.894   8.308   0.556 -0.0978 -0.1520  0.0615
19546W        W23144   4.173  14.409   5.298  0.0336 -0.0170 -0.4160
19547W        W23145   0.834  12.523  15.979 -0.2247  0.0539  0.1361
19548W        W23146   2.934   6.467   0.704  0.0672  0.0251  0.1318
19549W        W23147   8.387   1.508   2.593  0.0263  0.1097  0.0406
19550W        W23148  11.445  13.488   5.470  0.0167 -0.2383  0.2212
19551W        W23149  14.166  14.600  14.447 -0.1769  0.3048  0.3574
19552W        W23150  10.865  12.411  15.113 -0.2373 -0.0888  0.0736
19553W        W23151  11.452  13.143   3.599 -0.2350 -0.1145  0.3078
19554W        W23152   7.955   3.806  14.117 -0.2884 -0.2427 -0.1758
19555W        W23153   1.507  16.372   7.164 -0.1398  0.1540  0.0461
19556W        W23154  13.937   1.569   7.915  0.2060 -0.2816 -0.0274
19557W        W23155  14.799   6.345  12.689  0.0563 -0.0369 -0.3397
19558W        W23156   3.755  12.685   3.321 -0.0717 -0.0571 -0.0129
19559W        W23157  13.711  14.273   5.115 -0.1686  0.1210 -0.1016
19560W        W23158   3.838  12.281  10.031  0.0287 -0.0517 -0.1878
19561W        W23159   7.174   3.966   4.995 -0.0561  0.0869  0.0576
19562W        W23160   7.664   8.589  11.906 -0.2284  0.0614 -0.0093
19563W        W23161   0.743   3.153  10.159 -0.0066 -0.0883  0.2224
19564W        W23162   2.319   7.015  13.327 -0.0053 -0.1937 -0.2918
19565W        W23163   1.424   9.241   3.755 -0.2509  0.3148 -0.0125
19566W        W23164   1.867   0.116   9.806 -0.0368 -0.5347  0.0220
19567W        W23165  15.434   1.677   1.249  0.0214 -0.1687  0.1358
19568W        W23166   3.348  16.254  16.295 -0.0500 -0.2236 -0.1252
19569W        W23167  14.997   0.471   2.495  0.4792  0.2689  0.2896
19570W        W23168   6.887   7.464   1.153  0.1873  0.1197 -0.1935
19571W        W23169  12.165   7.059   1.867  0.0804 -0.1522 -0.0641
19572W        W23170  13.671   5.625   1.236 -0.1431  0.1015 -0.0311
19573W        W23171   6.713   5.239   8.156  0.0540  0.0667  0.1853
19574W        W23172   6.323  11.626   9.385 -0.1675  0.0321 -0.1730
19575W        W23173  11.733   9.001  14.407  0.0644  0.0324 -0.1583
19576W        W23174   3.969   7.995   2.003 -0.1808 -0.0666 -0.0963
19577W        W23175   4.960   6.750  10.657  0.0385 -0.2055  0.2877
19578W        W23176   1.660   2.608   0.405  0.0209 -0.0034 -0.0968
19579W        W23177   3.573  13.890   9.391  0.3296 -0.0212 -0.1416
19580W        W23178   2.993  10.971   3.422 -0.2855  0.2125  0.0848
19581W        W23179  13.407   2.513   2.554 -0.0856 -0.0002 -0.2335
19582W        W23180   8.821   2.673   7.148  0.0886 -0.1450 -0.0505
19583W        W23181  14.784   5.108   3.594  0.0192  0.0359  0.1272
19584W        W23182   7.910   5.689  11.557  0.3382  0.1720  0.0458
19585W        W23183   1.560   3.779   1.468 -0.2308 -0.0162  0.1836
19586W        W23184   5.983  13.115   1.967 -0.2162  0.0907 -0.0966
19587W        W23185   1.725  12.760  13.160 -0.2150  0.0362  0.2844
19588W        W23186   3.832   7.943   6.301 -0.3959  0.0240 -0.0928
19589W        W23187   1.794   1.439  15.123 -0.1321  0.0687 -0.0662
19590W        W23188   3.039   2.474  11.402  0.1339  0.0944  0.1005
19591W        W23189  11.805  11.284   7.838 -0.1763 -0.0384  0.0521
19592W        W23190   6.625   7.993   3.794  0.1671 -0.1086  0.2036
19593W        W23191  10.726   5.285   8.067  0.2395 -0.0462  0.4519
19594W        W23192   0.954   5.207  11.062  0.1257 -0.1146  0.1448
19595W        W23193   4.915   3.713  12.074 -0.3703  0.1720 -0.1617
19596W        W23194  11.159   0.566   0.348 -0.1673 -0.4352  0.7026
19597W        W23195  16.119   8.996  14.876  0.0732 -0.1178 -0.1106
19598W        W23196  11.801  14.990  12.016 -0.0163 -0.0404  0.0222
19599W        W23197   5.587  12.640  15.664  0.0148  0.1658  0.1513
19600W        W23198   3.895   5.776   0.202 -0.0267  0.0856 -0.0400
19601W        W23199   7.891  14.453   1.305  0.0491  0.1704 -0.1293
19602W        W23200   0.158   5.130  12.149  0.0127  0.0015 -0.0197
19603W        W23201  10.096   8.058  16.288  0.0467 -0.2805  0.4743
19604W        W23202  10.724   6.715   7.306  0.0799  0.2456  0.2592
19605W        W23203  11.012  15.117   2.149 -0.1582  0.4656 -0.3842
19606W        W23204   2.267  14.971   9.740 -0.1392  0.2210 -0.1037
19607W        W23205   7.584  16.201  12.607 -0.0227  0.2547 -0.0756
19608W        W23206  10.983   3.693   2.694  0.3423  0.1875 -0.2729
19609W        W23207  15.788   7.549   9.138 -0.1271 -0.1426  0.0147
19610W        W23208  11.528   1.793  12.475 -0.0179 -0.0502  0.2017
19611W        W23209  12.444   4.186   5.730 -0.2579  0.2637 -0.1992
19612W        W23210   4.884  11.873   6.574 -0.0580 -0.0490  0.1880
19613W        W23211  15.863  11.123  10.736  0.0557  0.0514 -0.1143
19614W        W23212  13.584  14.677  16.254  0.0717  0.2248  0.1252
19615W        W23213   6.534  11.386   8.492  0.0091 -0.0803 -0.0623
19616W        W23214   4.462   8.370   0.967  0.2937 -0.0870 -0.1001
19617W        W23215  10.664   8.341   1.157  0.2531 -0.0560  0.2545
19618W        W23216   1.727   7.843   2.858 -0.0257  0.2691  0.0268
19619W        W23217  15.288   9.747   3.530  0.0306  0.0020  0.2428
19620W        W23218   7.524   6.471  10.185 -0.1544 -0.1692  0.2255
19621W        W23219   2.786  15.940  11.400  0.0033  0.0653 -0.0798
19622W        W23220  11.809  14.356   8.673  0.1592  0.1613  0.3162
19623W        W23221   5.894  13.567   2.082  0.3437  0.0192  0.1098
19624W        W23222   9.427   3.670  12.365 -0.0927 -0.0016 -0.2486
19625W        W23223  12.825   9.589   2.633  0.0419  0.0559  0.2882
19626W        W23224   1.996   1.740   5.592  0.5355  0.2451 -0.1556
19627W        W23225  15.673   4.293  15.690  0.2341 -0.1452 -0.1009
19628W        W23226   5.088  16.240  15.902 -0.1938  0.2141  0.0052
19629W        W23227  14.944   1.950   4.838  0.1088  0.0169  0.2683
19630W        W23228   9.803  12.604   5.735  0.1381  0.1055 -0.0073
19631W        W23229   7.213   9.223  15.530  0.1260 -0.0178  0.1247
19632W        W23230  13.191  14.260   9.066  0.0218 -0.1156 -0.0598
19633W        W23231  10.354  15.419  11.570 -0.0274 -0.2658  0.0803
19634W        W23232   9.458   3.119   7.753  0.2565  0.1858 -0.0329
19635W        W23233   8.247  12.242   0.512 -0.1982  0.0531 -0.1118
19636W        W23234   5.201   2.750  13.495  0.1891  0.0316 -0.2317
19637W        W23235   0.263  14.624   6.847 -0.2519  0.2401  0.0853
19638W        W23236   0.937   6.454   1.776 -0.2271 -0.0245  0.1244
19639W        W23237   1.966   2.158   8.946  0.2070 -0.1753  0.4713
19640W        W23238   7.672   8.160   4.287  0.0169  0.3753  0.4087
19641W        W23239   8.852  14.569   0.532  0.1272  0.1373  0.1056
19642W        W23240   7.572  10.750  14.827 -0.0071 -0.0186  0.1866
19643W        W23241   9.023   8.543  13.964 -0.2062  0.1983 -0.1976
19644W        W23242  11.444  13.843  10.623  0.1448 -0.1421 -0.1734
19645W        W23243  12.655   8.081   5.559 -0.0742 -0.2726 -0.0652
19646W        W23244   8.957   5.587   9.430 -0.1048 -0.4653  0.0344
19647W        W23245   5.087   0.072  11.153  0.0836  0.3409 -0.0976
19648W        W23246   2.726   3.645   8.174  0.1856  0.3593 -0.1419
19649W        W23247  13.523  12.866   3.245  0.2766 -0.0634 -0.0494
19650W        W23248   0.856   5.055  12.764  0.1080 -0.0747  0.2341
19651W        W23249  13.609   5.934  13.291  0.5429  0.4193 -0.4361
19652W        W23250  15.849   8.277  10.913 -0.1094 -0.1803  0.1228
19653W        W23251  12.782   2.602   8.415 -0.4155  0.2673  0.1958
19654W        W23252  13.990   0.836  14.548 -0.2040 -0.1063  0.2546
19655W        W23253   5.096   4.764   4.734 -0.2315  0.0525  0.3544
19656W        W23254  13.388  13.109  15.840 -0.2268 -0.1198 -0.3261
19657W        W23255   4.719  16.168  15.602 -0.0045 -0.0091  0.1921
19658W        W23256  13.942   2.638  10.189  0.2367 -0.2620  0.0405
19659W        W23257   6.325   5.298  12.443 -0.2943  0.0536 -0.0716
19660W        W23258  11.928  15.841   2.107 -0.1052  0.0563  0.1969
19661W        W23259  11.829  15.190   6.274  0.0180 -0.3723 -0.0900
19662W        W23260   8.852   9.520   3.604  0.0512  0.0243  0.0118
19663W        W23261   0.521  16.354   9.834 -0.1841 -0.0126  0.3326
19664W        W23262   2.940   3.743   7.140 -0.0895  0.0663 -0.1940
19665W        W23263   8.007   4.358   8.685 -0.0922 -0.0035 -0.0245
19666W        W23264  15.118   6.547   4.744 -0.0515  0.0049  0.1231
19667W        W23265   7.958  15.817  11.241  0.3335 -0.0947 -0.1332
19668W        W23266   4.057   4.619   0.210  0.0345  0.0186 -0.3477
19669W        W23267   0.606   3.437   3.513 -0.1821  0.0423 -0.2333
19670W        W23268   0.651  11.728   1.562 -0.1105 -0.0285 -0.1702
19671W        W23269  12.455  10.919   8.936  0.3921 -0.1874  0.0335
19672W        W23270   7.625  12.629  11.094 -0.1140 -0.0286 -0.2318
19673W        W23271   1.475  13.138  12.667  0.4111 -0.1014  0.0451
19674W        W23272  13.743   4.545  10.262 -0.1820 -0.3232  0.0357
19675W        W23273   4.831   5.723   4.406 -0.0260 -0.1124 -0.1586
19676W        W23274  15.153   6.234  11.824 -0.1715 -0.1711  0.0566
19677W        W23275   8.549   0.051   2.977  0.0526 -0.0318  0.2394
19678W        W23276  14.244   6.211  15.131 -0.0315  0.0070 -0.1208
19679W        W23277  11.599   0.328   5.258  0.1814 -0.0919 -0.2684
19680W        W23278   2.440   5.618   1.251  0.2695  0.0923 -0.3038
19681W        W23279   5.825   6.416  11.541 -0.1009 -0.0658  0.1612
19682W        W23280   7.792   5.220   4.809 -0.0815  0.1304 -0.1328
19683W        W23281   2.155  16.250   8.413  0.4594 -0.7328 -0.0826
19684W        W23282  15.745  13.031   3.936  0.1010 -0.1485  0.0198
19685W        W23283  14.829   5.137   6.073 -0.1381  0.1203 -0.0028
19686W        W23284   5.647   5.146   0.303  0.1237  0.0803  0.1354
19687W        W23285   4.722   1.099  11.294  0.1161  0.1744 -0.1924
19688W        W23286   0.473  15.098   0.522 -0.1618 -0.1694  0.0829
19689W        W23287  13.822   1.421   9.577 -0.0460  0.0099 -0.1567
19690W        W23288  14.950  13.995  13.085 -0.1475 -0.1458  0.0083
19691W        W23289  14.800  10.142  13.745 -0.3147  0.4942  0.2478
19692W        W23290  11.162   6.764   4.073  0.2361 -0.2337 -0.0559
19693W        W23291   5.129   0.738   6.328  0.0215 -0.1314 -0.0432
19694W        W23292   9.650  11.411   6.815 -0.1670 -0.1903  0.2550
19695W        W23293  13.574   5.637   5.738  0.0368 -0.1742 -0.1450
19696W        W23294   1.046   5.274  16.143  0.2005  0.1920 -0.3169
19697W        W23295  14.119   4.567   6.520 -0.1432  0.2648  0.0343
19698W        W23296  15.880  13.360  13.434  0.2671 -0.0870  0.0095
19699W        W23297   3.206  10.992  15.871  0.2536  0.1287 -0.1590
19700W        W23298  12.346   3.267   1.159  0.2058 -0.0298 -0.0049
19701W        W23299   1.865  12.746  10.546 -0.0492 -0.3847  0.1605
19702W        W23300   2.380  14.358   9.591 -0.0024  0.4614  0.3375
19703W        W23301   6.759   9.416   4.922 -0.1412 -0.3243 -0.1769
19704W        W23302  12.498   7.293   2.134 -0.1625  0.1821  0.1838
19705W        W23303  13.758   4.949   7.897  0.1717  0.1116 -0.3319
19706W        W23304  11.166   8.096  12.880 -0.1630 -0.1027 -0.1714
19707W        W23305  11.224   3.422   0.446 -0.3388  0.0458  0.1441
19708W        W23306  11.271   4.735   9.378 -0.0339  0.2333  0.0296
19709W        W23307   5.833  11.770   9.457  0.0222 -0.4183  0.0754
19710W        W23308   7.464  13.689   9.499  0.3059 -0.1322  0.1047
19711W        W23309  12.876   1.080   3.160  0.0227 -0.3356 -0.1498
19712W        W23310   6.455  16.168  12.974  0.1628 -0.0683  0.2235
19713W        W23311   2.195   3.767   8.028  0.3434 -0.0143 -0.0548
19714W        W23312   9.225   9.320   4.537 -0.0127  0.0153 -0.0755
19715W        W23313   4.640   4.206   6.327 -0.3480  0.0897 -0.3957
19716W        W23314   5.777   1.763   6.921  0.2347 -0.1433 -0.1323
19717W        W23315   0.387   2.302   9.538  0.4047 -0.3964  0.0107
19718W        W23316   6.687  13.362   6.378 -0.1863 -0.1589 -0.1612
19719W        W23317  14.803  15.387  11.870  0.0320  0.0684  0.0442
19720W        W23318   4.710   4.251   5.474  0.2930  0.1120 -0.0509
19721W        W23319   5.829   4.139  10.247  0.3151  0.2809  0.0513
19722W        W23320   6.963  16.088  11.205  0.0281  0.1808  0.2232
19723W        W23321   6.706   0.639   7.378 -0.1679  0.0523  0.0629
19724W        W23322   5.799   9.999   1.237  0.3053  0.3178 -0.0142
19725W        W23323   8.609   8.754   2.628  0.2666 -0.2458 -0.1348
19726W        W23324   2.565   8.549   5.501 -0.2941 -0.1459  0.1353
19727W        W23325   5.184   6.504   7.449 -0.1429  0.3694 -0.0923
19728W        W23326   7.711  10.496  10.226 -0.0333  0.1749  0.0358
19729W        W23327   2.656  16.337   8.031  0.0596 -0.3885 -0.2869
19730W        W23328   2.264   4.020  11.066  0.2027  0.1239 -0.0594
19731W        W23329   6.427   1.557   4.221  0.0659 -0.0590 -0.0527
19732W        W23330   4.308  10.219   0.554  0.1901  0.0660  0.2417
19733W        W23331  15.793   7.010   0.006 -0.2163 -0.0157  0.1813
19734W        W23332  13.697   9.669  13.382  0.1911 -0.1051 -0.0479
19735W        W23333   6.438  13.432  12.135 -0.0765  0.1164 -0.0209
19736W        W23334   8.889  12.282  13.158  0.1465 -0.0872  0.1493
19737W        W23335  12.640   7.932   8.874  0.1181 -0.1519  0.1047
19738W        W23336   7.032  10.634   0.655 -0.2435  0.0211 -0.1536
19739W        W23337   2.803  15.169  12.683 -0.1951  0.0521  0.2048
19740W        W23338   5.230   2.914   4.703  0.1301  0.0024  0.0383
19741W        W23339   6.310   4.508   8.165 -0.0262 -0.1192 -0.0754
19742W        W23340   1.867   3.226   8.644  0.1257  0.0882  0.0621
19743W        W23341   3.666   9.159   1.826 -0.0551  0.1579 -0.0727
19744W        W23342   3.655  15.910   8.428  0.1227  0.1665  0.1186
19745W        W23343  10.337   4.015   5.968 -0.1940 -0.1213 -0.2170
19746W        W23344   1.803   9.186  15.451  0.0192  0.1561 -0.2256
19747W        W23345   7.328  11.713   6.510 -0.0972 -0.0268 -0.0111
19748W        W23346  14.218  10.980  11.194  0.0519  0.2026 -0.0880
19749W        W23347  15.431   5.576   5.040 -0.0203  0.2857  0.2111
19750W        W23348  11.271  16.101   5.122 -0.0420 -0.1043  0.0757
19751W        W23349   2.039  13.181  15.791 -0.1110 -0.0175  0.1365
19752W        W23350  15.508   3.058  16.225  0.2591  0.1116  0.0651
19753W        W23351  14.519   3.781  12.020 -0.0244  0.0853 -0.0996
19754W        W23352  11.808  16.128   5.867 -0.0703  0.2652 -0.0074
19755W        W23353   0.739   8.955   6.574  0.0925  0.2767 -0.5863
19756W        W23354  11.262  13.946  13.637  0.0797  0.5461 -0.0737
19757W        W23355  10.279   2.994  10.634 -0.1096  0.0701 -0.1990
19758W        W23356  11.886   0.738   0.109 -0.3493  0.0315  0.0948
19759W        W23357  11.650  12.688   0.621  0.1989  0.1734  0.0825
19760W        W23358   8.826   0.216  11.826  0.2668  0.2620  0.1908
19761W        W23359   6.027   6.162  15.925 -0.4698 -0.0798  0.0256
19762W        W23360   1.723   4.316  16.328  0.1974  0.0803  0.0332
19763W        W23361  10.567   2.072  10.233  0.3566 -0.2282 -0.0711
19764W        W23362   0.395   3.077  14.977  0.0973  0.0904  0.1011
19765W        W23363  14.324  10.504   5.442 -0.0801  0.0885  0.0250
19766W        W23364  12.170  15.323  13.435  0.2541  0.0197  0.1499
19767W        W23365  11.503   3.401  14.171  0.1866 -0.0631  0.2821
19768W        W23366   3.686   7.673   1.740 -0.0150 -0.3019  0.3764
19769W        W23367   8.855  14.501   8.017 -0.0794  0.1964 -0.2599
19770W        W23368  13.709   3.973   1.152  0.0325  0.1336  0.2680
19771W        W23369   9.066   1.707  10.696  0.4666  0.0686 -0.1176
19772W        W23370  11.972  14.843   6.572  0.0707  0.0402  0.0849
19773W        W23371  12.874   7.691   1.803 -0.1586  0.1260  0.0091
19774W        W23372   7.609   1.369   5.520  0.2315  0.2170  0.0889
19775W        W23373   9.478   2.894  13.881 -0.0045  0.0976 -0.1346
19776W        W23374   6.394  13.611  12.576  0.0894 -0.0466  0.0378
19777W        W23375  12.348  14.366   8.746  0.3645 -0.1094  0.1196
19778W        W23376   3.059  15.177   8.178  0.2561 -0.2218  0.0260
19779W        W23377   3.399  13.286   8.579  0.0026  0.0390  0.1337
19780W        W23378   2.508  14.630   3.784 -0.0581  0.0792 -0.2752
19781W        W23379  11.881   4.776  10.358  0.1571 -0.3736 -0.0971
19782W        W23380   9.559  15.186  16.004  0.0553 -0.0370 -0.1649
19783W        W23381   1.522  10.708   7.123 -0.1114 -0.1756  0.1400
19784W        W23382  14.524  12.143   9.877  0.0150 -0.1060  0.0651
19785W        W23383   3.788   2.908  12.622  0.0294  0.0531  0.1907
19786W        W23384   8.463   4.572  13.813  0.1984 -0.0800  0.2182
19787W        W23385   7.477  14.702   4.612  0.2140  0.1842 -0.1978
19788W        W23386  11.527  10.565   7.083 -0.1562  0.0506 -0.0062
19789W        W23387  12.989   0.419  12.029 -0.1199  0.1562  0.1706
19790W        W23388  13.128   9.035   0.475 -0.0859  0.1405 -0.1202
19791W        W23389  13.882   4.499   7.547  0.1054 -0.1762 -0.0650
19792W        W23390   6.261  10.876   8.082  0.1785 -0.1319 -0.0518
19793W        W23391   3.618   3.289  14.147 -0.1670  0.1907 -0.0753
19794W        W23392   2.025   1.465  11.186 -0.1287 -0.0591 -0.2052
19795W        W23393   8.079   5.830  14.677 -0.1005  0.3233  0.3271
19796W        W23394   1.070  12.534  12.652  0.2526  0.0052 -0.3251
19797W        W23395  10.934   3.101   4.578 -0.2034 -0.2320  0.1309
19798W        W23396   2.955   2.757   2.864  0.3424  0.2028  0.2755
19799W        W23397   6.712   9.013  15.682  0.1762  0.2734 -0.2422
19800W        W23398   2.102   5.450   7.363  0.1005  0.0208 -0.0324
19801W        W23399   6.751   8.361   6.890 -0.1513 -0.1822 -0.2604
19802W        W23400   9.670   4.769  10.204  0.1826  0.0301 -0.1265
19803W        W23401   8.445   3.840  15.657 -0.0395 -0.1912  0.1230
19804W        W23402  11.730   9.944   2.126  0.1997 -0.1157  0.0822
19805W        W23403   4.911   3.037   7.465  0.2992  0.0324  0.1715
19806W        W23404   3.528  14.863   8.913 -0.3769  0.0123 -0.2343
19807W        W23405   8.871   4.830   0.111  0.1914  0.0871 -0.1496
19808W        W23406  14.579   1.491  14.662  0.1727  0.1431 -0.0680
19809W        W23407   3.542  15.094   5.113 -0.1707  0.0264  0.1087
19810W        W23408  12.218   5.573  13.306 -0.1023 -0.0347 -0.1749
19811W        W23409  14.758   0.321  12.318 -0.1754  0.2656  0.1216
19812W        W23410   8.794   4.274  13.547 -0.2142 -0.1217 -0.2070
19813W        W23411   7.405   8.420   2.910  0.3114  0.1870  0.0480
19814W        W23412   0.183  15.118   6.616  0.2171  0.0475  0.0298
19815W        W23413   9.416   0.017  16.144  0.1055  0.3435 -0.2126
19816W        W23414  11.355  11.274  11.194  0.2541  0.2183 -0.1260
19817W        W23415   9.889   9.622  11.942 -0.1595 -0.3456 -0.4361
19818W        W23416   5.677   5.256   4.922 -0.2812  0.0925  0.0286
19819W        W23417   9.006   5.001   6.908 -0.0526  0.1294 -0.0098
19820W        W23418  11.511   4.997   2.142 -0.2142 -0.1257  0.0202
19821W        W23419   1.781  12.018   6.296  0.4218 -0.0340  0.0263
19822W        W23420  12.073  12.963  12.278 -0.2333  0.2786  0.1006
19823W        W23421  10.499   1.088   2.307 -0.2324  0.0410  0.2850
19824W        W23422  13.899  15.435  12.459  0.2206  0.3609 -0.0315
19825W        W23423  14.775   4.028   4.533  0.0322  0.2242 -0.0437
19826W        W23424  14.208  15.340   5.391  0.0496  0.2645  0.0173
19827W        W23425   3.575  15.803   1.522 -0.0665  0.0311 -0.0894
19828W        W23426   5.939   1.092   5.971  0.3524 -0.2529  0.0061
19829W        W23427  10.868   5.912   2.387 -0.2643 -0.1729 -0.1502
19830W        W23428   3.593   6.820   0.225 -0.1078 -0.0963  0.0476
19831W        W23429  11.423   6.474  12.792  0.2344 -0.2693 -0.1940
19832W        W23430   1.990   4.308   0.804  0.3604  0.1473 -0.0070
19833W        W23431  10.373   2.112   2.703  0.0459 -0.1802 -0.0341
19834W        W23432   1.437  12.356   1.409  0.2960  0.3286 -0.0683
19835W        W23433  12.032   1.624  15.516  0.2290 -0.0169 -0.1685
19836W        W23434   3.451  12.537   9.012  0.0968  0.2170 -0.2520
19837W        W23435  10.888   8.700   5.512  0.0240  0.0817 -0.2408
19838W        W23436   4.086  14.286  15.983  0.0767 -0.0842 -0.1991
19839W        W23437  13.549  13.073  10.509  0.1951  0.3742 -0.0191
19840W        W23438   6.979  14.056  14.738 -0.0877  0.4655  0.0338
19841W        W23439   4.897   4.854  10.300  0.2110 -0.0162 -0.4230
19842W        W23440   8.457  10.288  11.499  0.1265  0.1883  0.1577
19843W        W23441  10.104   5.929   7.786  0.3025 -0.0102  0.0595
19844W        W23442  13.495   5.416   4.318  0.1285  0.4639 -0.1230
19845W        W23443   5.361  11.226   4.829  0.2751  0.2385  0.2033
19846W        W23444   1.787  11.945   7.776 -0.0728 -0.1928  0.5929
19847W        W23445   9.643  12.641   7.108 -0.2340  0.4140  0.1963
19848W        W23446   9.330   6.720  11.928 -0.2255  0.2304 -0.0491
19849W        W23447  16.312   3.280   2.548  0.0301  0.1368 -0.0894
19850W        W23448  13.345   0.859   2.977 -0.1553  0.1901 -0.0423
19851W        W23449  11.010   5.452   2.825 -0.2625  0.0254  0.0604
19852W        W23450   3.796   2.092  12.352 -0.1498  0.0426 -0.1040
19853W        W23451   9.953  11.873   6.080 -0.0211  0.1219 -0.0280
19854W        W23452   7.223   4.882   4.427  0.0404 -0.0326  0.1143
19855W        W23453  10.312   8.209  14.396  0.1507 -0.1439  0.1030
19856W        W23454  14.684   2.593  13.296  0.1078 -0.0290  0.2626
19857W        W23455   1.322   4.538   0.117  0.2992 -0.2129  0.1471
19858W        W23456   3.088   2.827   0.211  0.1001  0.0903 -0.1477
19859W        W23457   8.514   0.841   0.746  0.1435 -0.3423  0.2669
19860W        W23458  15.992   5.660  10.625 -0.1479  0.0005  0.1120
19861W        W23459   7.388   2.762   4.704  0.0782 -0.1421 -0.1258
19862W        W23460   6.094   8.894  14.001  0.1956  0.1574 -0.3803
19863W        W23461   6.449  15.729   9.503  0.0900 -0.3705 -0.3023
19864W        W23462   3.977   9.940  10.777  0.1801 -0.0377 -0.2002
19865W        W23463   5.476  14.631  14.640 -0.1651  0.1371 -0.0903
19866W        W23464   6.037   5.737  12.408 -0.1270  0.2778  0.3375
19867W        W23465   7.951   8.998   3.360 -0.2246 -0.0760 -0.0155
19868W        W23466   5.278  11.693   1.279  0.2185  0.1737  0.0912
19869W        W23467  12.992  12.391   7.406 -0.1228  0.1969  0.0075
19870W        W23468   3.151   6.851  11.308  0.1016 -0.1700 -0.1211
19871W        W23469   8.110   3.015   5.259  0.4194 -0.0307 -0.0709
19872W        W23470  13.985  14.249   6.330 -0.1081  0.0267  0.3468
19873W        W23471   2.379  11.855  14.081 -0.0442  0.1283 -0.0659
19874W        W23472   3.434  12.158   7.626  0.1264  0.1539 -0.0054
19875W        W23473   6.532   3.315  11.690 -0.1144  0.0507 -0.4182
19876W        W23474  13.754   3.492  13.678  0.1186  0.3865 -0.3207
19877W        W23475  11.159   4.021   7.646 -0.0579 -0.0955  0.1215
19878W        W23476  14.151   0.784   3.464  0.0193  0.2755 -0.1013
19879W        W23477   3.078   0.112   1.720  0.1483 -0.0089  0.0064
19880W        W23478   9.530   2.043   2.318 -0.0821 -0.0181 -0.3758
19881W        W23479   6.588  15.249   6.388 -0.4943 -0.0654 -0.2618
19882W        W23480   5.081   2.106   9.471 -0.1524 -0.2087  0.0440
19883W        W23481  11.978   0.041  10.747 -0.2928 -0.1120 -0.0659
19884W        W23482   9.791  11.391  10.589  0.0040  0.2511  0.0162
19885W        W23483  10.923   5.522   3.731  0.1957 -0.1287 -0.1209
19886W        W23484   9.926   2.647   0.217  0.1013 -0.3830 -0.3489
19887W        W23485   7.484   4.526   8.948 -0.1596  0.1468 -0.2998
19888W        W23486   0.578  11.389   5.679  0.1150  0.1162 -0.2022
19889W        W23487  13.771   4.082   0.560 -0.3769  0.0068  0.0127
19890W        W23488  16.000   6.908  12.960 -0.1269 -0.0698  0.1953
19891W        W23489   1.641   9.224   6.510  0.1494  0.0632  0.1953
19892W        W23490  15.323  13.969  13.460  0.2785 -0.0664 -0.1485
19893W        W23491  12.286  15.256  12.328  0.1027 -0.1412  0.0733
19894W        W23492  10.696   1.943   7.170  0.1635  0.3683 -0.1612
19895W        W23493   4.635  15.780   7.155  0.0377  0.1113 -0.1558
19896W        W23494   1.273  11.640   1.517  0.0200 -0.0649 -0.0114
19897W        W23495  11.644   7.831  16.076 -0.0492  0.2330 -0.2120
19898W        W23496  15.972   5.381  11.570 -0.0084 -0.1987 -0.1804
19899W        W23497  12.352   5.992  11.868  0.0931  0.1082 -0.0900
19900W        W23498  12.057  10.532  15.592 -0.1189  0.2276 -0.1981
19901W        W23499   5.657   8.006  13.979 -0.0348 -0.0489 -0.0829
19902W        W23500  11.648  14.244   9.928  0.0388  0.0192 -0.1440
19903W        W23501   7.642   9.896   6.607  0.1917 -0.3151  0.1499
19904W        W23502   6.285  11.202  10.659  0.0320  0.4141 -0.0043
19905W        W23503  11.595   5.640  11.395  0.0682  0.1775 -0.2799
19906W        W23504   4.119   2.585   8.674  0.0297  0.1247 -0.0577
19907W        W23505   0.186  12.859   0.093  0.1126  0.1057 -0.0121
19908W        W23506   3.159   7.296   5.831  0.3129  0.2110 -0.1091
19909W        W23507   1.203  10.251   7.993  0.0619  0.0219  0.0138
19910W        W23508  16.032   3.567   6.973 -0.0567  0.2253  0.2136
19911W        W23509   3.310  13.527  13.936 -0.0171  0.1691  0.0110
19912W        W23510  15.981  10.702   3.713 -0.0309 -0.0705 -0.0389
19913W        W23511   0.042  13.650   4.337  0.1420 -0.1417 -0.0652
19914W        W23512  13.931   1.609   8.780 -0.0823  0.1305 -0.3261
19915W        W23513   1.244  15.556   0.582 -0.0088 -0.0702 -0.0438
19916W        W23514   7.049  11.964   6.855 -0.0848 -0.2846 -0.0737
19917W        W23515  16.111   6.330  12.267 -0.0316  0.1201  0.0011
19918W        W23516   7.161   7.938   1.243  0.3247  0.0828  0.0791
19919W        W23517  12.254   3.497  12.626  0.1169 -0.0021  0.1407
19920W        W23518  13.194  15.528   7.750 -0.2154  0.3719 -0.1357
19921W        W23519   7.443  13.192   7.056  0.1181  0.0281 -0.0855
19922W        W23520  11.008  10.958   2.635  0.3758 -0.1161  0.0534
19923W        W23521   9.282   0.372   1.956  0.0313 -0.1636 -0.0711
19924W        W23522  12.376  13.274   4.156  0.2882  0.0292 -0.0680
19925W        W23523   6.924   8.759   1.796 -0.1743  0.3768 -0.2275
19926W        W23524  10.698  13.834  12.784  0.0423 -0.0866 -0.3340
19927W        W23525   0.231   5.745  11.553 -0.0777  0.0224 -0.0601
19928W        W23526  15.606   6.095   4.046 -0.1877 -0.3272  0.2186
19929W        W23527   7.248  11.169  13.430 -0.3241  0.0323  0.0099
19930W        W23528   5.798  10.747   2.385 -0.1066  0.2781 -0.0737
19931W        W23529   5.854   4.544  14.944 -0.0032  0.3336 -0.6043
19932W        W23530  14.022  16.147   7.498  0.3282  0.3160 -0.0820
19933W        W23531   2.178  10.149   8.378  0.0996  0.2360 -0.0760
19934W        W23532   0.712   3.237   2.539 -0.2083  0.0060  0.1145
19935W        W23533   6.064   4.344  13.586  0.0959  0.1048  0.1614
19936W        W23534   6.304   5.580   7.217 -0.0668 -0.0819  0.2873
19937W        W23535   8.021   3.113   9.056 -0.0993 -0.2985  0.1564
19938W        W23536   9.947  11.795   7.119 -0.4127  0.1248  0.3237
19939W        W23537  14.447   1.770   2.113  0.0604  0.0762 -0.1318
19940W        W23538   8.262  14.776   1.505 -0.0432 -0.2201 -0.1155
19941W        W23539  15.976   7.370   1.663  0.2643 -0.1108 -0.1083
19942W        W23540   5.723   3.935   2.252 -0.1664  0.0252  0.1297
19943W        W23541  10.472  11.440   8.178  0.0321  0.1647 -0.1544
19944W        W23542  10.141   0.869   2.049 -0.0618 -0.1691  0.4312
19945W        W23543   8.432  12.656  11.651 -0.1421  0.1107  0.0057
19946W        W23544   2.147  10.513   6.332  0.0696  0.3698 -0.2018
19947W        W23545   5.901  13.626  10.102  0.2056  0.2030  0.0545
19948W        W23546   0.208   9.155   7.556  0.2106  0.0427  0.2397
19949W        W23547  10.057  14.586   0.831  0.1286  0.1737  0.1008
19950W        W23548  15.974  15.325   5.132  0.3068  0.0406  0.0507
19951W        W23549   7.763  15.456  15.803  0.3084  0.0513 -0.2311
19952W        W23550  10.444  10.743   1.473 -0.2721  0.2226  0.0537
19953W        W23551  11.160  11.798  15.588  0.0723 -0.0656  0.1169
19954W        W23552  14.831   2.075   2.161 -0.0328  0.2108  0.2183
19955W        W23553  14.153   7.473   9.777  0.0430 -0.3768  0.1268
19956W        W23554   2.530   2.374  13.408 -0.0533 -0.1674 -0.0845
19957W        W23555   8.427   0.046   3.506  0.0058  0.1403  0.1815
19958W        W23556  10.540   3.570   8.158 -0.0198  0.0204  0.3215
19959W        W23557   2.049   7.901  15.609  0.4203 -0.4504  0.1543
19960W        W23558   8.150  16.074  10.342  0.0703 -0.0317 -0.3446
19961W        W23559  14.094   6.994  12.926  0.3564  0.1409 -0.0280
19962W        W23560   5.416  13.721  11.019  0.0019 -0.0062 -0.0770
19963W        W23561   6.943   1.376   9.620  0.1113  0.0040  0.2449
19964W        W23562   6.084  16.088   5.357  0.0747  0.2832  0.3753
19965W        W23563   6.334   2.036   2.771 -0.0512 -0.1813 -0.0901
19966W        W23564   2.550   7.627  11.544  0.1213 -0.0685  0.0968
19967W        W23565   1.327   3.958  13.320 -0.1450  0.1173  0.1070
19968W        W23566   9.599  14.844   2.808 -0.1971  0.0193 -0.4026
19969W        W23567   0.270   7.733  12.423 -0.3765 -0.1391  0.0633
19970W        W23568   5.716  12.056   0.485  0.1858  0.3481  0.0919
19971W        W23569   6.265   2.716   7.770 -0.3382  0.0649 -0.1068
19972W        W23570  14.309  13.937   9.938 -0.4469  0.1499 -0.0086
19973W        W23571  13.377   0.319   9.580  0.1158  0.2310  0.0919
19974W        W23572  14.340   6.458  14.594  0.0971 -0.0143 -0.1282
19975W        W23573   5.466   3.545   4.227 -0.0091 -0.0060  0.2349
19976W        W23574   3.639   4.903  10.060  0.1183 -0.3016  0.2465
19977W        W23575   5.663  11.506  13.985 -0.1266  0.1064 -0.2237
19978W        W23576  15.530  11.369   9.698  0.3756  0.1053  0.3274
19979W        W23577   5.562   7.390  11.818 -0.6018  0.0186  0.2552
19980W        W23578  10.044  14.225   6.846 -0.2386 -0.0357 -0.0847
19981W        W23579  10.200   5.114   4.189  0.0595  0.1002 -0.3293
19982W        W23580   2.097   3.767   0.700  0.1600 -0.1647  0.1452
19983W        W23581   8.958  10.266   5.307  0.1082 -0.3938 -0.0511
19984W        W23582  15.515   8.845   8.366  0.2267 -0.0194 -0.0001
19985W        W23583   3.102   1.150  11.520 -0.0526 -0.0171  0.0638
19986W        W23584   8.423   5.234   8.433  0.0310  0.6141  0.2871
19987W        W23585   5.558   4.604  13.416 -0.2774 -0.0806 -0.3128
19988W        W23586   7.023   2.388   8.198 -0.1229 -0.0225 -0.2027
19989W        W23587   2.370   3.691   1.151  0.4782  0.0802  0.1272
19990W        W23588   1.665   9.101   8.425  0.1385  0.1673  0.0513
19991W        W23589   2.471   5.774   1.725  0.0401  0.0636  0.0292
19992W        W23590   3.039   5.219   0.216 -0.3856  0.0570 -0.0612
19993W        W23591   8.018   8.972  12.029  0.1216 -0.1704 -0.1657
19994W        W23592   5.921  13.900   8.135  0.0054  0.4537 -0.0553
19995W        W23593   2.311  10.606   7.573 -0.1264  0.2159  0.0272
19996W        W23594  11.807  11.496  13.023 -0.1995  0.3042 -0.5086
19997W        W23595   4.284  14.904   3.644 -0.0764 -0.2628  0.2071
19998W        W23596   4.255   2.785   3.471  0.1130  0.1434 -0.0192
19999W        W23597   2.561   1.882  11.737 -0.0890  0.1196  0.1152
20000W        W23598   4.081   6.177   6.380 -0.4235  0.0923  0.2225
20001W        W23599  11.334   5.104   3.106 -0.0852 -0.1018 -0.4025
20002W        W23600   5.805   5.388  12.151 -0.1756 -0.0425 -0.1596
20003W        W23601   5.832   6.968  11.780 -0.0907 -0.0529 -0.0728
20004W        W23602   1.151   7.142   2.587  0.1525  0.2045 -0.1989
20005W        W23603  16.272   9.281   2.995 -0.0187  0.0476  0.1234
20006W        W23604   4.247  13.590   1.366 -0.0284  0.1176 -0.0530
20007W        W23605   8.942   6.441   7.571 -0.3847 -0.3877 -0.1156
20008W        W23606  11.539   2.109   8.018 -0.0380 -0.0879 -0.0803
20009W        W23607   9.177   7.069  14.981 -0.1313  0.3152  0.0454
20010W        W23608  11.259  15.284  11.222  0.0213  0.2761 -0.0401
20011W        W23609  15.306   1.387   6.813 -0.0036 -0.2253  0.3670
20012W        W23610   7.534  14.528   9.664  0.1542  0.1864  0.1410
20013W        W23611   7.472   8.097   2.500 -0.3864 -0.0803 -0.1367
20014W        W23612   3.634   8.652   8.037  0.2487 -0.0576 -0.0109
20015W        W23613  14.173   5.961   8.328 -0.3339  0.1094 -0.0286
20016W        W23614  11.550   7.832  12.082  0.2030 -0.0908  0.0550
20017W        W23615  15.806  10.119  15.667  0.0041  0.3577 -0.0135
20018W        W23616   3.877   3.539  11.041  0.1436 -0.0201  0.2366
20019W        W23617   2.000  15.364   0.047 -0.2993 -0.0297  0.1612
20020W        W23618  12.891   9.265   9.400  0.0370  0.0933 -0.0475
20021W        W23619   4.334   1.047   3.363  0.1314 -0.2689  0.0471
20022W        W23620   7.063   7.418  10.079 -0.2620  0.2017 -0.0491
20023W        W23621   9.312   7.747   4.361 -0.1228  0.1005 -0.1320
20024W        W23622   6.682   7.035  12.400 -0.1261 -0.1579 -0.1727
20025W        W23623   0.678   5.424   0.893 -0.1835 -0.1502  0.4426
20026W        W23624   1.621   9.588  11.469  0.3857  0.0868 -0.0524
20027W        W23625   7.211  12.289   8.854 -0.1414 -0.1591  0.0748
20028W        W23626   1.413  13.032   2.886 -0.2623  0.1045  0.1743
20029W        W23627   5.861   0.053   3.522  0.0504 -0.1396  0.1361
20030W        W23628  12.404   0.914  16.364  0.4208 -0.1615 -0.1090
20031W        W23629  15.486   0.467   1.093 -0.1950 -0.0143 -0.0209
20032W        W23630  14.859   3.611   8.768  0.0302 -0.1655  0.0257
20033W        W23631   0.317   1.034   5.152  0.1514  0.0498  0.3566
20034W        W23632   1.574  14.946   4.609 -0.2200 -0.0795  0.1184
20035W        W23633   5.999  10.414   1.937  0.0638 -0.1794  0.3992
20036W        W23634   6.460   1.924  10.697 -0.1526 -0.1675 -0.0997
20037W        W23635  16.108   1.721   0.775 -0.0582 -0.0744 -0.0225
20038W        W23636   3.962   5.318   0.442 -0.3034  0.1153  0.0730
20039W        W23637  14.934   7.103  11.845  0.2211 -0.1693  0.0007
20040W        W23638   7.681   8.296   6.357 -0.0042 -0.1259  0.1068
20041W        W23639   3.336   1.718  14.339  0.0583  0.1479 -0.0117
20042W        W23640   6.019  13.950   0.853  0.1304 -0.0930  0.3716
20043W        W23641  13.133  16.317  11.788  0.3592  0.0154 -0.1069
20044W        W23642   7.768   3.245   0.613  0.0057  0.2452 -0.0214
20045W        W23643  12.164   2.362   9.056  0.3924  0.0855 -0.0410
20046W        W23644   2.585   8.131   7.368 -0.1056  0.2492  0.1170
20047W        W23645   5.396  11.362   5.303  0.3204  0.0668  0.0257
20048W        W23646  10.661   4.039   6.584 -0.0066 -0.1290  0.1107
20049W        W23647   8.689   1.347  10.952 -0.3269  0.0776  0.2097
20050W        W23648   6.411   1.613   3.567 -0.0080 -0.2262 -0.1727
20051W        W23649   4.580  12.341   4.571  0.1081  0.0753  0.0773
20052W        W23650   7.881   8.983   5.232 -0.0043  0.2366  0.3273
20053W        W23651   9.650  10.257   8.916  0.2020  0.0816 -0.1722
20054W        W23652  10.224  12.703   2.690 -0.0273  0.2189  0.0675
20055W        W23653  13.535   8.051  16.300 -0.0925 -0.1700 -0.1856
20056W        W23654  12.394  10.695  15.266 -0.0164  0.1114 -0.0000
20057W        W23655   0.946  14.181  15.436 -0.1418 -0.0559  0.1797
20058W        W23656  10.078  13.502   9.435 -0.4453 -0.0017  0.1787
20059W        W23657   7.143   5.274  12.448 -0.2318 -0.0269  0.2227
20060W        W23658  12.654  11.356   8.886 -0.1368 -0.2973  0.4602
20061W        W23659   9.149  10.800   9.429  0.1450  0.0569  0.5190
20062W        W23660  12.191   3.016  15.382 -0.1792  0.2440  0.3438
20063W        W23661   9.558   9.273  12.779 -0.2037  0.1605 -0.1588
20064W        W23662   6.893   4.825   2.771  0.0111 -0.0864 -0.1057
20065W        W23663  13.873  14.489   1.667 -0.1584 -0.2414  0.1933
20066W        W23664  11.440   7.432  15.890  0.4836  0.0713  0.0581
20067W        W23665   6.487   6.295   0.672  0.1549 -0.0705 -0.4133
20068W        W23666   8.446   0.861  13.909  0.1823 -0.2393  0.2571
20069W        W23667  13.278   3.668   4.337  0.0005  0.3806 -0.2191
20070W        W23668   0.071   7.978   5.008  0.0250  0.0416 -0.3855
20071W        W23669   1.110   5.078   5.478 -0.0915 -0.0157 -0.1167
20072W        W23670   3.138   7.237   6.435  0.1157 -0.0942  0.0335
20073W        W23671   1.518  12.905  11.170  0.1542 -0.1209 -0.3298
20074W        W23672  15.663  12.289  15.589 -0.2546  0.2918 -0.3116
20075W        W23673  12.467  11.059   8.046  0.0090  0.1744 -0.1289
20076W        W23674  15.329   7.263  13.556 -0.0442 -0.1032 -0.1459
20077W        W23675  15.957   5.285  12.110 -0.0710  0.0423 -0.0115
20078W        W23676   3.944  13.571  13.855 -0.1701 -0.0642  0.2394
20079W        W23677   9.847   8.372  10.138  0.1187  0.3778  0.0732
20080W        W23678   5.483  12.135   1.424  0.2550  0.1549 -0.0214
20081W        W23679   0.035  14.156   3.159  0.0435  0.0454  0.1885
20082W        W23680   1.892   8.109  12.454 -0.2088  0.1055 -0.0480
20083W        W23681   5.015   6.378  13.595  0.4158  0.0771  0.1751
20084W        W23682  10.488  10.257   8.909  0.1936  0.1087  0.1986
20085W        W23683  15.301  10.897  12.035  0.0419 -0.1531  0.0327
20086W        W23684   3.946   9.992   0.820 -0.0723 -0.1373 -0.0264
20087W        W23685   8.534   0.669   1.285  0.4265  0.1004 -0.1306
20088W        W23686   2.342  15.538   9.088  0.0844 -0.0356  0.2985
20089W        W23687  10.926   7.851   8.971 -0.0122 -0.0089  0.3001
20090W        W23688   3.702  13.837  12.502 -0.0165  0.0945 -0.0813
20091W        W23689  11.893  11.424  12.536  0.0400 -0.4546  0.0252
20092W        W23690   4.078  14.956  11.796 -0.0515 -0.2234  0.1629
20093W        W23691   8.960   8.261   9.071  0.1061  0.1582 -0.1355
20094W        W23692  11.982  15.008  11.255  0.0042 -0.1436 -0.0487
20095W        W23693   3.457   8.928  12.307 -0.1753  0.2443 -0.2668
20096W        W23694  13.995  10.333   8.907 -0.0139  0.3276  0.0017
20097W        W23695  15.141  14.973   3.188 -0.3178 -0.3031 -0.0631
20098W        W23696   4.009   8.602   6.713 -0.4306  0.3819  0.1590
20099W        W23697   6.493   1.574   8.457  0.3616 -0.1531 -0.1953
20100W        W23698  15.383   7.422   4.696  0.2555 -0.2039 -0.0505
20101W        W23699   5.306  15.352  13.558  0.2036 -0.2098  0.2278
20102W        W23700   9.668   8.449   0.191  0.2820 -0.1283 -0.0435
20103W        W23701  13.994   8.688   8.075  0.0183 -0.0767 -0.2381
20104W        W23702   2.855  12.990  15.722 -0.3232 -0.1653  0.1410
20105W        W23703   4.043   9.055   3.006 -0.0498 -0.0120 -0.1398
20106W        W23704   1.954  13.237   4.141 -0.0042  0.1998  0.1853
20107W        W23705   2.965  10.825   6.641 -0.0246  0.0986 -0.0673
20108W        W23706   6.920   2.999   9.392 -0.0490  0.0835  0.0077
20109W        W23707   6.446   2.433   8.229 -0.3614  0.2009  0.1554
20110W        W23708  12.690   8.051   4.576  0.0312  0.0628  0.0933
20111W        W23709  10.155   1.539  13.555  0.1721  0.0034  0.1161
20112W        W23710   3.258  14.433  14.960  0.2630 -0.0107 -0.2464
20113W        W23711   5.190   8.629   3.686  0.2324  0.0225  0.1201
20114W        W23712  11.725  15.332   3.039 -0.1626  0.1796  0.0567
20115W        W23713  10.258  12.520   9.326  0.0071  0.1963 -0.0583
20116W        W23714   0.384   8.575   8.912  0.0515  0.2049  0.3115
20117W        W23715  14.298  11.121   6.470  0.2430  0.0255 -0.1527
20118W        W23716   1.154   5.085  12.014  0.0987 -0.0078 -0.1120
20119W        W23717   9.666   6.171   5.267 -0.0893 -0.0460 -0.0985
20120W        W23718   1.752   2.810   3.165 -0.2158 -0.0312 -0.0823
20121W        W23719  15.152   6.287  11.301 -0.0743 -0.0955  0.1071
20122W        W23720   2.536  11.360   6.566 -0.2297  0.0750  0.0306
20123W        W23721  11.276   2.966   6.993 -0.1399 -0.0628 -0.1304
20124W        W23722   3.108  12.047   6.740  0.0372 -0.0413  0.0533
20125W        W23723   6.740  12.663   1.506  0.1046 -0.1098  0.1561
20126W        W23724  10.113  13.817  14.773  0.0855  0.1526  0.2541
20127W        W23725  12.514   8.161   3.017 -0.0990 -0.0445 -0.2030
20128W        W23726   8.168  11.084  16.254  0.1317 -0.0910 -0.0987
20129W        W23727  11.990   8.665   6.252 -0.1173 -0.1984 -0.1556
20130W        W23728   8.999   8.085   4.613  0.2063  0.1343  0.3814
20131W        W23729  14.231  11.082  10.180  0.1333 -0.0253  0.0182
20132W        W23730   5.498   2.634   1.274  0.0579 -0.1944  0.1581
20133W        W23731  10.260   2.777  11.056 -0.1754  0.0496 -0.0171
20134W        W23732   1.787   9.481  15.814 -0.0456  0.2252 -0.0918
20135W        W23733   1.963   1.679   6.598  0.0926  0.0258 -0.0531
20136W        W23734  14.916  12.077   1.373 -0.1260  0.0858 -0.0923
20137W        W23735   1.910  14.478  12.950  0.0782  0.0456  0.1918
20138W        W23736   0.209   2.476   7.800 -0.0483  0.1739  0.2206
20139W        W23737  15.163   6.240   3.707  0.0184  0.1068 -0.1188
20140W        W23738   5.197   0.285   3.651  0.2170 -0.1012  0.0010
20141W        W23739  15.088  11.606  16.143  0.0459 -0.1724  0.1246
20142W        W23740  13.064   4.664   1.684 -0.2718 -0.2451 -0.1718
20143W        W23741   5.736   1.514  16.223 -0.4236  0.2203  0.2948
20144W        W23742   3.254   1.172   2.466  0.0071  0.1978 -0.0366
20145W        W23743  13.707   0.933   6.980  0.0468  0.0446  0.1129
20146W        W23744  10.877   8.050   6.135 -0.1589 -0.1599  0.0060
20147W        W23745   7.747  11.299  12.697 -0.2321  0.0844 -0.3163
20148W        W23746   3.577   0.794   0.879 -0.1271 -0.1089 -0.0121
20149W        W23747  13.760   4.116  10.006  0.0902 -0.1756  0.0076
20150W        W23748  10.360  12.271  15.499  0.0883 -0.1748  0.0019
20151W        W23749   3.771   6.458   7.910  0.0005 -0.1655  0.1336
20152W        W23750  14.051   4.449   5.850  0.0659  0.2233  0.1224
20153W        W23751   0.029   5.718  12.374 -0.1705 -0.0424  0.4031
20154W        W23752  13.554   1.796   7.472 -0.2110  0.1237  0.2162
20155W        W23753  10.193   6.613  13.817  0.0208  0.0445 -0.0515
20156W        W23754   7.630   5.870   0.463 -0.2185 -0.1886 -0.3781
20157W        W23755   4.979  10.623  15.879  0.1310  0.1450  0.2422
20158W        W23756  11.227  16.115  12.474  0.3036 -0.0016 -0.1343
20159W        W23757   0.528   1.849   8.661 -0.5105  0.2035  0.0634
20160W        W23758   9.072   8.520   9.795  0.1443 -0.2241  0.3910
20161W        W23759  12.771   4.261   5.241 -0.1342  0.2471  0.2564
20162W        W23760  13.955  15.028  10.055  0.1498  0.0013  0.0876
20163W        W23761   7.124   0.591   1.161  0.2508  0.1517 -0.1939
20164W        W23762  11.464   4.072   1.366 -0.2416 -0.0224 -0.0758
20165W        W23763  13.684  12.155   0.201 -0.1822  0.0142 -0.0051
20166W        W23764   5.234  12.169   3.156 -0.1259 -0.1135  0.0481
20167W        W23765   3.779   9.920   9.456  0.1313 -0.0138  0.1314
20168W        W23766   5.561   5.343   2.672 -0.4182 -0.0151 -0.0381
20169W        W23767   0.150  11.950  15.178 -0.1902  0.0822  0.0134
20170W        W23768  16.299   7.334   9.230  0.2748 -0.0187 -0.2832
20171W        W23769   5.424   8.660   4.999 -0.1855  0.0512 -0.2073
20172W        W23770  15.720  11.420   7.621 -0.0397  0.3711  0.2043
20173W        W23771  14.351   8.316  10.478  0.2700 -0.1069 -0.3573
20174W        W23772   2.286   0.273  14.855 -0.0248  0.0277 -0.0220
20175W        W23773   1.475   7.422  14.303  0.0576  0.1187  0.0195
20176W        W23774  13.339   3.738   9.964  0.0339  0.0156 -0.1394
20177W        W23775   8.390   5.651   3.194  0.0318  0.1089  0.1176
20178W        W23776  14.211  15.654   3.936 -0.2362 -0.3665  0.1597
20179W        W23777  14.989  14.186  10.235 -0.1677 -0.0082  0.0356
20180W        W23778   4.036  10.291  12.383  0.1187  0.3175  0.5210
20181W        W23779   4.225   5.964   3.915 -0.0607  0.0541 -0.0149
20182W        W23780  15.675   5.063   5.234  0.1079  0.0622  0.1832
20183W        W23781  14.340  12.274   0.724 -0.1629  0.0964  0.1275
20184W        W23782   1.605   1.854   8.775  0.1189 -0.1490  0.0922
20185W        W23783  15.297   6.790   1.674 -0.1761 -0.0786  0.1996
20186W        W23784   5.504  15.751  13.190 -0.0327 -0.0406 -0.0591
20187W        W23785   4.104  14.922   1.667 -0.0333  0.0913 -0.1118
20188W        W23786   1.579  15.949   9.174 -0.0371  0.3156  0.1694
20189W        W23787   5.610  12.626   3.926 -0.2449  0.0996  0.0192
20190W        W23788   8.421  12.633   9.462  0.3961  0.2042  0.2579
20191W        W23789  13.705  11.039   5.830 -0.1692  0.2866  0.2122
20192W        W23790   1.817   3.903  10.256  0.3864 -0.3345 -0.0649
20193W        W23791   7.735   2.617   5.065 -0.2571 -0.1276 -0.1820
20194W        W23792   8.844   3.591   7.610 -0.0036 -0.2810 -0.0315
20195W        W23793  12.048   9.772  15.233 -0.1076  0.3737 -0.0124
20196W        W23794   4.035   8.785  10.698 -0.0888  0.1688  0.0114
20197W        W23795  11.425   5.633  13.143 -0.0329 -0.1616  0.1283
20198W        W23796   3.133   7.002   1.406  0.2160  0.0631 -0.0193
20199W        W23797   6.953  12.421  10.553  0.0370 -0.1522 -0.0277
20200W        W23798   0.729  14.051   3.895  0.0269 -0.0790 -0.0368
20201W        W23799   7.360   1.553   2.049  0.0931  0.0350 -0.0233
20202W        W23800  14.464  15.921   8.989 -0.0558 -0.1029 -0.1011
20203W        W23801   5.219  11.580  13.802  0.1519  0.1755  0.1625
20204W        W23802   9.710  10.320   6.266 -0.2389 -0.0088  0.3384
20205W        W23803  14.583   5.933  12.155  0.4472 -0.1217  0.2159
20206W        W23804  10.293   1.002   8.002 -0.2536 -0.1034  0.0290
20207W        W23805   5.540   3.332   2.868  0.0418  0.1881  0.1459
20208W        W23806   8.759   2.408  12.168 -0.1743 -0.0323  0.3870
20209W        W23807   2.766   6.035   2.155  0.1174  0.1310  0.5050
20210W        W23808   4.294   9.864   6.291 -0.5394  0.2249 -0.1374
20211W        W23809   3.838   6.585   7.423  0.2036  0.0489  0.1493
20212W        W23810   5.555   8.680   2.334  0.2427  0.1667 -0.0235
20213W        W23811   0.463  10.595  12.287  0.0282  0.2641 -0.1350
20214W        W23812   7.112   3.256  14.290  0.0483  0.3475  0.2022
20215W        W23813   2.901   2.212   3.474 -0.0580  0.1052  0.1010
20216W        W23814  12.490   4.494   0.476 -0.2543  0.2906  0.1206
20217W        W23815   1.755  12.414   5.458 -0.1780  0.0580  0.2899
20218W        W23816   7.311  10.663  13.234  0.0443 -0.4376 -0.0885
20219W        W23817   7.381  10.173   9.404 -0.0406  0.1131 -0.1759
20220W        W23818   4.766   6.635   3.832 -0.2552 -0.0525 -0.3992
20221W        W23819   0.091   8.221   1.064 -0.0314 -0.1043  0.0685
20222W        W23820   2.290  10.029   3.789 -0.1677  0.3816 -0.0557
20223W        W23821  14.170   7.026   9.376  0.0197  0.0413 -0.1453
20224W        W23822  13.913   8.648  10.574 -0.1269  0.2667  0.1669
20225W        W23823  13.321  12.760   9.736 -0.0239 -0.0354  0.2248
20226W        W23824  12.766   2.483  10.179 -0.2063 -0.0944 -0.0272
20227W        W23825   9.796   8.240   9.048 -0.0305 -0.1698 -0.0598
20228W        W23826   8.645   5.159   9.395  0.1013  0.0630  0.3134
20229W        W23827   4.795   0.584   3.781 -0.2836 -0.3525 -0.0308
20230W        W23828   9.906  12.293   1.509 -0.0494 -0.1059  0.1411
20231W        W23829   6.581   2.940   1.664  0.0625 -0.0050 -0.3144
20232W        W23830   7.475  10.742   5.113 -0.0806  0.1770 -0.0961
20233W        W23831   9.096   8.762   2.700  0.2190 -0.1829  0.0423
20234W        W23832   0.978  14.229   0.184  0.1488  0.0142  0.4035
20235W        W23833   4.871   5.544   8.567 -0.1621 -0.0010  0.1907
20236W        W23834  13.659   9.494   8.696 -0.0363  0.1241  0.1743
20237W        W23835   5.425  16.092   7.253 -0.1011 -0.1432 -0.0072
20238W        W23836   1.876  12.726   9.622  0.4858 -0.1051 -0.1200
20239W        W23837   2.741   8.709   7.026  0.1150  0.2205 -0.2241
20240W        W23838   3.343   8.733   7.559  0.3268 -0.1511 -0.0419
20241W        W23839  11.390   1.038   3.475 -0.2513  0.0237  0.0323
20242W        W23840   7.911  11.654   8.358 -0.0576  0.0903 -0.2125
20243W        W23841  11.135  13.016  15.909  0.4670  0.3602 -0.1086
20244W        W23842   8.328  14.557   5.733  0.0825  0.0909 -0.0609
20245W        W23843   0.532  11.962   0.387  0.1245  0.3301  0.1145
20246W        W23844  11.616   0.852  16.012  0.4019 -0.1600 -0.2404
20247W        W23845  12.465   4.316  15.352 -0.2632 -0.0981 -0.0241
20248W        W23846   3.609   9.720   5.582  0.1715  0.0172 -0.2420
20249W        W23847   0.847   3.091  11.638 -0.1764  0.2630  0.3964
20250W        W23848   7.158  10.738   5.555 -0.0179  0.0270 -0.2864
20251W        W23849   2.840   9.931  10.205 -0.3019  0.2052 -0.0337
20252W        W23850   2.566  10.653  14.867 -0.1897  0.1693  0.2345
20253W        W23851  15.874   8.304  13.019 -0.0975 -0.1266  0.0333
20254W        W23852  16.251   8.407   5.079  0.0928 -0.1019  0.2332
20255W        W23853  13.140  15.242   0.554 -0.1410 -0.1253  0.2644
20256W        W23854   3.168  12.228   4.913  0.2788 -0.1592  0.2341
20257W        W23855  12.590   2.109   4.267 -0.0096  0.1762 -0.1194
20258W        W23856  14.686  11.103   3.618  0.0038 -0.3287 -0.0369
20259W        W23857   2.716   6.735   5.733 -0.1132 -0.3428 -0.0916
20260W        W23858   5.916   6.094  14.886 -0.1320  0.2032 -0.2865
20261W        W23859   7.347   0.281   4.807 -0.1570 -0.0517  0.1881
20262W        W23860   7.906   0.732  14.014 -0.1980  0.2592 -0.1661
20263W        W23861  12.527  11.864  13.158  0.0283 -0.1696 -0.0252
20264W        W23862  12.566   4.716  15.753  0.1989  0.3892 -0.4116
20265W        W23863   5.691  16.268   5.696  0.1048  0.0478  0.2604
20266W        W23864   8.534  16.328  12.822 -0.1008  0.0892  0.0796
20267W        W23865   1.200   2.961  12.108 -0.1323  0.0998 -0.0999
20268W        W23866   9.345  13.473  11.150  0.2226  0.0424  0.3796
20269W        W23867   1.779   5.805   2.007 -0.0977  0.3367 -0.3271
20270W        W23868   0.339  15.082  14.563  0.1031  0.1720  0.0089
20271W        W23869   9.632  13.154   8.834 -0.0157  0.3036 -0.2640
20272W        W23870   6.602  15.531   8.033  0.0544  0.1030  0.0911
20273W        W23871   6.104   8.604  12.514  0.2348 -0.0216 -0.2597
20274W        W23872   4.911  11.845   5.401  0.2094  0.0915  0.4696
20275W        W23873   9.210  10.998  13.124  0.0163  0.2386 -0.0516
20276W        W23874   5.749   1.081  12.807  0.0320  0.1681  0.2765
20277W        W23875   9.757   6.023  15.912  0.1411  0.1844  0.3022
20278W        W23876  10.445  10.114  16.386 -0.0123 -0.1193 -0.3700
20279W        W23877  10.073   6.311  12.360  0.1508  0.1794 -0.0775
20280W        W23878   8.550  10.896  13.764 -0.1438 -0.0047 -0.1184
20281W        W23879  10.590   3.015  16.213 -0.0889  0.1554  0.0284
20282W        W23880  13.058   8.241  12.261 -0.4087  0.0058 -0.0497
20283W        W23881   2.249   6.949   5.660  0.0507 -0.0981  0.2217
20284W        W23882  15.910   7.663  14.796 -0.0633  0.1657 -0.0785
20285W        W23883   3.937   9.628   0.378 -0.0893 -0.1505 -0.0990
20286W        W23884   1.578   1.957   4.221  0.1236 -0.0546  0.0865
20287W        W23885  11.303  12.674  15.020 -0.2278  0.2047 -0.0778
20288W        W23886   5.780   8.847   0.690  0.1074  0.0901 -0.0242
20289W        W23887  15.869  12.113   5.599  0.0955  0.1439  0.0771
20290W        W23888  15.782   2.766  13.265 -0.1311  0.0310 -0.2844
20291W        W23889   7.068  16.256   3.533  0.1513 -0.0273  0.1805
20292W        W23890   1.818   9.350  11.850  0.1416 -0.0941 -0.1467
20293W        W23891   9.719   1.387   7.116  0.0537 -0.4260  0.0165
20294W        W23892   1.808   8.806  15.754 -0.0525  0.0178 -0.1516
20295W        W23893   9.157   5.197   4.084  0.1984  0.1882  0.2004
20296W        W23894  13.797  11.303  15.530 -0.3171 -0.1982 -0.0038
20297W        W23895   9.251   5.391   2.241  0.1901  0.1739 -0.1607
20298W        W23896  11.024  12.583  13.420  0.1913 -0.1298  0.0481
20299W        W23897  13.408  10.630   1.802  0.1103 -0.1090  0.2146
20300W        W23898  13.963   7.980   4.384  0.3663 -0.0642  0.2915
20301W        W23899  10.265  12.196  13.208  0.0262  0.1814 -0.0557
20302W        W23900   3.676  14.007  15.817 -0.1027  0.2522 -0.1472
20303W        W23901  10.625   7.425   8.785 -0.2323 -0.2746 -0.1736
20304W        W23902  16.309   8.557  12.294  0.1753  0.4300 -0.2976
20305W        W23903  13.330  15.875   3.041 -0.0306  0.2514 -0.0841
20306W        W23904   4.927   1.351  14.724 -0.0331 -0.0124  0.0861
20307W        W23905  14.428  12.790   0.420  0.0916 -0.0670 -0.1194
20308W        W23906   6.765   4.241   4.961  0.0793  0.3554 -0.1289
20309W        W23907   9.783   6.795  12.487 -0.1083 -0.5049  0.1626
20310W        W23908  13.120   5.436   8.520 -0.1931  0.2258 -0.0981
20311W        W23909   0.712   6.238  15.603  0.2337 -0.0161  0.1768
20312W        W23910   5.382  14.291   4.155 -0.1922 -0.0725  0.1262
20313W        W23911  13.427   3.021  14.479  0.1032  0.1004  0.0382
20314W        W23912  12.121   5.386   3.236  0.0946  0.1446  0.1842
20315W        W23913   6.546   8.000   7.332  0.2619 -0.2905 -0.1680
20316W        W23914   7.548  12.245   4.893  0.2005 -0.0179  0.1422
20317W        W23915  12.025  11.565   4.786  0.2087 -0.1798 -0.1094
20318W        W23916   7.790  15.326   9.821  0.0656  0.0526 -0.3692
20319W        W23917  14.862   0.240  10.528 -0.1269 -0.1111  0.0981
20320W        W23918  14.602   3.295  15.913  0.0412 -0.2502  0.0128
20321W        W23919   0.964   6.246   0.096  0.0998 -0.0832 -0.2051
20322W        W23920   1.527   9.781  14.731  0.2531  0.2617 -0.2791
20323W        W23921   6.239   7.747  15.138 -0.2308  0.1977  0.0726
20324W        W23922  12.248  16.250   5.674  0.1391 -0.0130  0.1651
20325W        W23923   2.679   3.623  15.389 -0.1219 -0.0434  0.2742
20326W        W23924  14.295   1.187   7.839  0.1622  0.1339  0.1691
20327W        W23925  10.284   8.219  10.399  0.0256  0.1283 -0.1070
20328W        W23926  14.183   2.498  15.717 -0.3015  0.2234 -0.1587
20329W        W23927  10.253   4.018  15.846 -0.2394 -0.4234 -0.0905
20330W        W23928   3.346   6.166  15.290 -0.2094  0.1954  0.1012
20331W        W23929  13.476  10.694   6.639 -0.3052 -0.0098 -0.4884
20332W        W23930  10.515   0.951  11.771  0.0162  0.2698  0.3977
20333W        W23931  14.536   8.824  15.632  0.2692  0.1216 -0.0221
20334W        W23932   3.367   3.739   9.200 -0.0040 -0.2299  0.3168
20335W        W23933   2.514   4.041   0.809  0.1201  0.0583 -0.3710
20336W        W23934   6.422   2.186   1.317  0.1302 -0.0077 -0.0145
20337W        W23935  15.844  12.160   1.327 -0.0217  0.2207  0.0316
20338W        W23936  10.671   9.576   2.400  0.0757 -0.0345  0.1613
20339W        W23937   3.529   1.480   0.575  0.0386 -0.1267 -0.3067
20340W        W23938   8.065  14.530   2.403  0.0925 -0.0965  0.0023
20341W        W23939   7.516   1.564   6.009 -0.0082 -0.0971 -0.1104
20342W        W23940  15.785   4.391   1.312 -0.2027  0.1390  0.1868
20343W        W23941  13.254   7.181  11.747 -0.1227  0.0083  0.0780
20344W        W23942  16.372   0.440   2.577  0.0708  0.2212 -0.0617
20345W        W23943   7.959   1.781  15.581 -0.2195  0.1020 -0.0293
20346W        W23944   6.698   2.904  12.018  0.0357 -0.2347  0.3265
20347W        W23945   2.910   7.479   2.029 -0.2030 -0.0755 -0.0149
20348W        W23946  15.832   6.763   9.645 -0.1364 -0.0344 -0.0574
20349W        W23947   1.871  14.556   4.841 -0.0184  0.2393  0.1549
20350W        W23948  11.072   2.242   4.519  0.0208  0.2078 -0.1123
20351W        W23949  15.321   8.637   9.489 -0.1826 -0.1748 -0.0987
20352W        W23950  11.499   4.545   4.151 -0.1820 -0.1118 -0.0233
20353W        W23951  12.498   1.773  14.182 -0.1909  0.1958 -0.0727
20354W        W23952   1.211   6.818  13.439 -0.1326 -0.0123 -0.0205
20355W        W23953   6.846   4.707  10.627  0.1352 -0.2750 -0.0429
20356W        W23954   4.256   4.158   0.087  0.1008  0.0821 -0.2291
20357W        W23955   5.508   8.151   4.077 -0.3245  0.1035 -0.1862
20358W        W23956  11.063   8.574  11.545 -0.1205  0.0460  0.3745
20359W        W23957   2.210   0.201  12.755 -0.2503  0.0184 -0.2512
20360W        W23958  15.247  15.070   1.339 -0.0704  0.1908 -0.2377
20361W        W23959   3.574   9.791  11.093 -0.0145  0.3002 -0.2104
20362W        W23960   4.656  14.305   1.565  0.0055  0.2993  0.2228
20363W        W23961  10.235   6.980   6.705 -0.0477  0.0265 -0.2569
20364W        W23962   0.545   1.531   1.596 -0.0674  0.0442 -0.0145
20365W        W23963  16.311   2.987   2.047 -0.3457  0.1791  0.3682
20366W        W23964   2.481  15.721  13.871 -0.3561  0.4042  0.0097
20367W        W23965   5.774  11.593   4.995  0.1708 -0.1662  0.0159
20368W        W23966  14.344   6.430  13.689  0.1052 -0.0093  0.0857
20369W        W23967   1.116  10.154   9.338  0.0406 -0.0271  0.0919
20370W        W23968   5.314   5.948  13.716  0.1609 -0.1861  0.1865
20371W        W23969  12.426  15.333   9.459 -0.0408  0.1018  0.0802
20372W        W23970  14.108   6.615  16.321 -0.3747  0.1261 -0.0753
20373W        W23971   0.418   1.090   6.487 -0.1246  0.1216  0.1875
20374W        W23972   6.124  13.969   1.334  0.1922  0.1047 -0.1297
20375W        W23973  11.012  12.536   7.840  0.3804 -0.0602  0.0109
20376W        W23974   7.136   6.725   2.124  0.1486 -0.0219 -0.1499
20377W        W23975  15.320  15.637  14.924 -0.0104  0.2714 -0.1706
20378W        W23976  10.015   0.429   6.686  0.0568  0.2548 -0.0710
20379W        W23977  14.323  12.341  15.562  0.1005  0.0549  0.0827
20380W        W23978  12.924  13.621   0.130  0.3641  0.0163  0.0666
20381W        W23979   4.144   0.284  16.069  0.0811 -0.0906 -0.1986
20382W        W23980  10.913   6.504   8.319  0.5491 -0.1551  0.1083
20383W        W23981   0.248  10.156   2.778  0.0068  0.0353 -0.1630
20384W        W23982   5.372   6.030   5.246 -0.4010  0.1150  0.1090
20385W        W23983  16.152  11.324   5.239 -0.0045 -0.3094  0.0153
20386W        W23984   0.625   3.989   0.834 -0.1737 -0.1814  0.0695
20387W        W23985  15.216   5.020  12.665 -0.1132  0.1667 -0.0355
20388W        W23986  11.549  14.100  13.287  0.0383  0.1327 -0.3433
20389W        W23987  15.634  13.521   7.934 -0.1063 -0.0188 -0.1422
20390W        W23988   2.264   7.131   6.877  0.0578 -0.3302  0.2004
20391W        W23989   6.949   4.551   0.065  0.1419  0.0658  0.2030
20392W        W23990   0.208   1.849   0.820 -0.2156 -0.2837 -0.1547
20393W        W23991  12.274   5.425  16.146  0.0418 -0.4572 -0.1757
20394W        W23992   0.453  13.057   9.786 -0.1016 -0.2105  0.0629
20395W        W23993  13.303   1.269  12.229 -0.1090  0.1248 -0.3132
20396W        W23994   8.282  14.466  12.239  0.1595 -0.1622  0.1214
20397W        W23995  11.873  11.468   3.855 -0.1113  0.1865  0.1064
20398W        W23996  14.645   0.102  11.452  0.2082 -0.2577  0.0525
20399W        W23997   4.937  12.629  10.584 -0.1099 -0.1276  0.1458
20400W        W23998   5.522   0.240  14.035  0.2443 -0.3903 -0.0860
20401W        W23999  15.163   7.441   6.719 -0.0356  0.1785  0.1245
20402W        W24000  14.464  14.426   6.281 -0.1296  0.0392  0.5088
20403W        W24001   4.862   8.766   6.785  0.0432  0.0193 -0.1704
20404W        W24002  15.282  13.170   0.578 -0.0536 -0.0553  0.0843
20405W        W24003  14.960   3.951   6.018  0.1608  0.1059  0.3859
20406W        W24004   2.950  12.150   2.945  0.0915  0.0382  0.4924
20407W        W24005   8.513   7.156   3.095  0.0352 -0.4723 -0.0894
20408W        W24006   8.313   2.194  12.088 -0.4145  0.2741  0.1504
20409W        W24007   5.971   0.483  13.918 -0.0484 -0.2610  0.0651
20410W        W24008   0.856   2.992  14.861 -0.3246 -0.0111 -0.0673
20411W        W24009   8.190  12.611  13.385  0.1354 -0.0887 -0.0662
20412W        W24010  13.130   0.425  10.009 -0.2168  0.2730  0.1859
20413W        W24011  11.001  15.620   5.298  0.3615  0.1054  0.0594
20414W        W24012   2.324   7.575   1.091 -0.3959  0.0392 -0.0032
20415W        W24013   0.551   4.118   3.005 -0.1111 -0.0351 -0.0841
20416W        W24014   1.910  11.087  15.888 -0.0211 -0.0930 -0.4256
20417W        W24015   4.954   8.063   2.959 -0.1105  0.0250 -0.0207
20418W        W24016  13.590   0.043  12.589 -0.1812 -0.0596  0.1259
20419W        W24017  13.012   3.386   9.091 -0.1076 -0.0822  0.0731
20420W        W24018   9.891   9.491  14.155 -0.1692 -0.1063 -0.2720
20421W        W24019  11.144   4.696   6.158  0.0959  0.1967  0.0367
20422W        W24020   9.749   0.476   7.626  0.2400  0.2295  0.1119
20423W        W24021   2.897   0.708  14.117 -0.0666 -0.3522  0.0845
20424W        W24022  15.804  13.873  12.243  0.1250 -0.0386 -0.2070
20425W        W24023   5.455   2.047   7.708  0.1897  0.0910 -0.3299
20426W        W24024   2.217  14.634   3.018  0.2310 -0.0830  0.2020
20427W        W24025  12.079   8.172  10.656 -0.0097  0.2413 -0.4529
20428W        W24026  14.308  15.277  12.120  0.1453  0.0259 -0.0274
20429W        W24027  10.792   5.159   4.748 -0.0543  0.1256 -0.1543
20430W        W24028   4.469  16.315   0.544 -0.2614  0.2006  0.1350
20431W        W24029   8.878   1.314   2.675 -0.2074 -0.0084 -0.0821
20432W        W24030   8.167  13.422  11.453  0.0140  0.1245 -0.1765
20433W        W24031   4.502  14.448   7.120 -0.0797 -0.2021  0.0954
20434W        W24032   9.898  14.513   3.748  0.2330  0.2876  0.0885
20435W        W24033   1.288   3.982   9.558  0.0816  0.2066 -0.2288
20436W        W24034  12.329   0.792  15.260  0.1572  0.3010 -0.1057
20437W        W24035  10.767   7.264   5.200  0.2843  0.2762 -0.0471
20438W        W24036   1.875   8.301   8.500  0.4017 -0.2874 -0.1799
20439W        W24037   9.240   3.673   6.401  0.3226  0.1123  0.2838
20440W        W24038   8.486   4.421  12.029  0.1837 -0.1308  0.0297
20441W        W24039   2.658  16.086   0.467 -0.1637 -0.4292  0.0454
20442W        W24040   1.244   0.181  12.300  0.2267  0.0307 -0.1390
20443W        W24041   7.612   0.052  15.406  0.0632 -0.2304 -0.1825
20444W        W24042   5.159  10.448   4.878 -0.1624  0.1223 -0.0954
20445W        W24043   6.137   7.670   7.422  0.0751 -0.1291 -0.2524
20446W        W24044   9.111   7.287   1.903  0.0139 -0.0725 -0.0148
20447W        W24045   6.036  11.712   6.921 -0.4311  0.2665  0.2297
20448W        W24046  15.283  13.653   2.118  0.1563 -0.0217 -0.1703
20449W        W24047   9.936  16.380  16.194  0.0569  0.2141 -0.2640
20450W        W24048  10.511   2.243   4.724 -0.2286  0.0298  0.0743
20451W        W24049   9.528   2.448   4.673 -0.0369  0.0583 -0.1147
20452W        W24050   2.723   8.821   3.231 -0.0365  0.0075  0.0005
20453W        W24051   7.010  11.386   8.552  0.2786  0.0210 -0.0792
20454W        W24052   2.642   9.303   2.017  0.1165 -0.0902  0.0895
20455W        W24053  10.118   3.746  11.950 -0.2339 -0.2680  0.1383
20456W        W24054   5.446   0.178   8.766  0.1778 -0.0342  0.3615
20457W        W24055   3.529   2.126  14.879  0.4121 -0.1007 -0.0564
20458W        W24056   9.307   3.561   8.712  0.3403  0.2928  0.3196
20459W        W24057   1.186  14.432   6.951 -0.0686 -0.3310  0.0127
20460W        W24058   1.943  13.963  11.241 -0.0552  0.0367  0.2439
20461W        W24059   0.621  15.840  12.342 -0.1683 -0.0591 -0.0116
20462W        W24060   7.608  14.233   1.761 -0.1385 -0.0259 -0.4985
20463W        W24061   3.149   4.044   7.476  0.1966 -0.1070  0.0967
20464W        W24062   3.445  11.282   4.168 -0.0124  0.1195  0.0768
20465W        W24063  14.894   6.923  12.350  0.0913  0.2382  0.0692
20466W        W24064   8.676   3.262   3.591 -0.1162  0.0162  0.2645
20467W        W24065   7.672  14.378   3.741 -0.0922  0.1711  0.1154
20468W        W24066   8.557   9.249  15.798 -0.1192  0.1123  0.4248
20469W        W24067   5.049   2.369   6.932 -0.0991 -0.1966  0.0903
20470W        W24068   4.120  16.179   8.645 -0.1086  0.1494 -0.2005
20471W        W24069   1.203   1.391   3.666  0.0449  0.1459 -0.0895
20472W        W24070  13.753  15.377   0.685 -0.0317 -0.2115  0.0527
20473W        W24071   1.363   0.390  15.896 -0.3575 -0.1769 -0.2074
20474W        W24072   3.407  12.657  15.560 -0.0809  0.0341 -0.1125
20475W        W24073   4.762  15.141   3.822 -0.2317 -0.1459 -0.0518
20476W        W24074  12.709   8.752   9.369 -0.1085  0.0479  0.1798
20477W        W24075   8.121  14.926  14.271 -0.1574  0.0756  0.3273
20478W        W24076  14.833   0.407  12.769  0.1558 -0.1530  0.0437
20479W        W24077  15.698   1.849   5.228  0.1467 -0.1092  0.1187
20480W        W24078  14.170   2.985   9.215  0.1144 -0.1723  0.1988
20481W        W24079   8.947   7.658  10.343 -0.2782  0.1319  0.0189
20482W        W24080   9.285   6.499  13.615 -0.3543  0.1106  0.1496
20483W        W24081  10.065  10.307   8.578 -0.1177 -0.2042  0.1515
20484W        W24082   3.973   7.289   4.761  0.0213  0.1036  0.0060
20485W        W24083  11.428   7.738   8.988  0.0820 -0.1591  0.2050
20486W        W24084   1.027  11.886   1.903 -0.0930 -0.1201 -0.2703
20487W        W24085   1.773  12.744  14.858  0.1921 -0.0979 -0.0853
20488W        W24086   6.834  10.836  11.790  0.0501 -0.4903 -0.0491
20489W        W24087   6.190   2.975  11.577 -0.4045  0.3221  0.1029
20490W        W24088   2.347  13.982   2.523 -0.1773 -0.0720  0.1538
20491W        W24089   6.107  11.565   2.503  0.3769  0.4358 -0.2073
20492W        W24090   2.960  10.011   7.213  0.0917 -0.1570  0.1481
20493W        W24091   7.262   8.830  11.636 -0.1377 -0.1658  0.3507
20494W        W24092  11.383   2.208  13.089  0.2351 -0.0219 -0.3322
20495W        W24093   8.215   6.691   1.406 -0.0628 -0.2239  0.0147
20496W        W24094  15.309   5.155   5.579 -0.1285  0.1300 -0.0374
20497W        W24095  16.178   8.610  16.286 -0.2625 -0.0107  0.1757
20498W        W24096  16.269   3.111  14.843  0.1720  0.1111 -0.2370
20499W        W24097  10.582   1.708  16.069  0.0775  0.1164 -0.0375
20500W        W24098  15.940   1.071   1.481 -0.0484 -0.1939  0.0388
20501W        W24099  12.512   7.450  12.886 -0.2254  0.2927 -0.0614
20502W        W24100   0.970   5.395   5.118 -0.0503  0.0463  0.0722
20503W        W24101   4.879   1.183   9.076  0.0790 -0.0415 -0.4129
20504W        W24102   0.244   4.961   1.891 -0.4459 -0.0020  0.2551
20505W        W24103   1.887  11.489  15.620 -0.2260  0.2144 -0.0045
20506W        W24104   5.046   1.480   3.777 -0.3206  0.0460 -0.2238
20507W        W24105  15.421  10.995  10.392 -0.0082 -0.0470  0.2025
20508W        W24106  11.469  13.323   1.258  0.0240  0.5437 -0.1671
20509W        W24107   5.223  13.496   8.922  0.0928 -0.0580  0.0087
20510W        W24108   9.419   0.231  13.101 -0.0813  0.1999  0.1132
20511W        W24109   4.880  15.865   5.449  0.0103  0.0371  0.2118
20512W        W24110  12.538   4.437  11.898 -0.0085  0.2733  0.0309
20513W        W24111   4.206  10.095   0.057  0.1300 -0.0227  0.1190
20514W        W24112   6.485   2.337   3.636  0.2259  0.2882 -0.2866
20515W        W24113   4.686   3.355  13.640  0.0772  0.3114  0.0505
20516W        W24114   3.330   2.821  11.414  0.1459  0.2637  0.4524
20517W        W24115  11.273  14.301   3.419  0.0382 -0.1650  0.2202
20518W        W24116  14.517  10.832   6.837 -0.2191  0.1836  0.0139
20519W        W24117   3.074   4.357  15.141  0.2139  0.0897 -0.0126
20520W        W24118  11.704   4.199   8.943 -0.0639  0.1589 -0.0954
20521W        W24119  12.526   8.100  12.027 -0.2449  0.1366  0.0589
20522W        W24120   5.297   1.632   1.149  0.1422  0.0403 -0.0031
20523W        W24121   6.535  12.713  14.460 -0.0419  0.0681  0.2160
20524W        W24122   8.457  13.038  13.165  0.0668  0.1956  0.1925
20525W        W24123  11.607  10.601  15.997  0.2071  0.0775 -0.2648
20526W        W24124   0.270   1.025   8.924  0.0612 -0.0469  0.1932
20527W        W24125   6.197   1.706   6.701 -0.2321  0.1930 -0.0003
20528W        W24126   1.841   7.471   3.293 -0.2445  0.2044 -0.0676
20529W        W24127   6.582  16.380   0.212  0.1641 -0.1704 -0.0597
20530W        W24128   6.554  12.980   1.114  0.0778  0.1673  0.0631
20531W        W24129  11.131  11.339   2.348 -0.1304  0.0702 -0.0315
20532W        W24130   0.780  11.162   0.334 -0.0753 -0.0223  0.2505
20533W        W24131   6.821  12.424  13.880  0.0786 -0.2343 -0.2087
20534W        W24132   2.697   3.347  10.125  0.0874 -0.0949  0.0242
20535W        W24133   6.774   3.794   5.821 -0.0368 -0.0095  0.0290
20536W        W24134  15.230  10.945   9.867  0.1742  0.1876 -0.1600
20537W        W24135   2.345   8.949   0.337 -0.1061  0.1950  0.1255
20538W        W24136   3.675  15.278   1.483  0.2173 -0.0202  0.1014
20539W        W24137   3.437  10.873   6.548 -0.0591  0.0350 -0.1950
20540W        W24138  14.530   9.948  14.100  0.0852 -0.1028 -0.1036
20541W        W24139   4.822   9.906  11.367  0.0991 -0.1157  0.1968
20542W        W24140  11.444  12.371   2.004  0.2640  0.0725 -0.0491
20543W        W24141   4.476  10.914   6.465 -0.1128 -0.2135  0.1511
20544W        W24142  15.456   3.394   7.853  0.0624  0.1259 -0.6018
20545W        W24143   7.193  15.075  12.048 -0.0772 -0.1475 -0.2422
20546W        W24144   7.264  12.991  14.716  0.0425  0.1668  0.0410
20547W        W24145   2.220  12.964   7.507 -0.0217 -0.2255 -0.0476
20548W        W24146   5.202  12.050   8.267 -0.0504 -0.1002  0.1795
20549W        W24147   1.235   9.260   8.670  0.0135  0.0473 -0.3082
20550W        W24148   7.654   6.976   7.498 -0.4002  0.0536 -0.1425
20551W        W24149   4.432   8.941  15.966  0.0727  0.2131  0.1688
20552W        W24150   3.618   2.215  14.410 -0.0651 -0.0352 -0.1378
20553W        W24151   8.464   6.365  14.041 -0.4607  0.0725 -0.1185
20554W        W24152   0.575  12.816   2.778  0.0719  0.0738  0.0235
20555W        W24153  10.622   0.074  11.555 -0.3207 -0.0831  0.0351
20556W        W24154   7.082  10.030   1.578  0.0485 -0.0156 -0.2954
20557W        W24155   3.213  10.421   0.631 -0.0649 -0.1231 -0.0586
20558W        W24156  10.908  12.482  10.649  0.3052 -0.2799  0.1700
20559W        W24157   4.493   1.171   0.743 -0.1764  0.1347  0.0933
20560W        W24158   1.351   6.459   4.805  0.2068 -0.1219  0.0709
20561W        W24159   9.568  15.079   1.984 -0.0568 -0.1110  0.0876
20562W        W24160   7.252  13.052   2.297  0.0910  0.1110  0.2272
20563W        W24161   5.379   3.378   5.292  0.1357 -0.0952 -0.0626
20564W        W24162   2.199  15.264  13.964 -0.0837 -0.1857 -0.3492
20565W        W24163   5.864   1.654   5.892 -0.0490 -0.1965  0.2393
20566W        W24164   9.883   1.353   0.907 -0.0084 -0.1429  0.1999
20567W        W24165   3.206  12.700   6.161  0.1906 -0.1022 -0.1454
20568W        W24166   5.202  13.375   0.372  0.1364 -0.0276 -0.1768
20569W        W24167   7.108   9.256  10.394  0.0918  0.0828 -0.3116
20570W        W24168   7.397   4.461  13.687  0.1309 -0.0469  0.3050
20571W        W24169   9.392   2.063   3.592  0.2319 -0.0940 -0.2217
20572W        W24170  14.404   9.333   6.487 -0.3537  0.1057 -0.1037
20573W        W24171   2.051  14.674   5.902 -0.2506  0.0590 -0.1826
20574W        W24172   0.340   9.494   8.814  0.1173 -0.0388 -0.1070
20575W        W24173  10.925   3.718   2.140 -0.2937  0.0151  0.0431
20576W        W24174   3.049   2.155   0.847 -0.0705 -0.0368  0.1860
20577W        W24175   5.902   7.958   1.208 -0.0111 -0.0925 -0.2501
20578W        W24176   9.676   0.375   1.652 -0.0165  0.0000 -0.3744
20579W        W24177  12.270   2.482  13.425  0.2114  0.0773 -0.1642
20580W        W24178   2.219   1.365   5.783 -0.0967 -0.0414  0.2370
20581W        W24179  10.083   6.350   5.549  0.2442 -0.2467  0.1826
20582W        W24180  11.569  14.453   4.354  0.1797  0.0439  0.2007
20583W        W24181   3.848   4.097   9.863  0.3705  0.0760  0.0344
20584W        W24182   9.681  10.873  14.188  0.1085  0.3052 -0.0463
20585W        W24183  11.699  11.336   6.412 -0.0072  0.2223 -0.0544
20586W        W24184   5.883   8.416   4.875 -0.1228  0.1873 -0.2213
20587W        W24185   4.162  10.564  15.287  0.1519 -0.1027 -0.0129
20588W        W24186   8.231   7.942   2.101 -0.2813  0.1878 -0.1572
20589W        W24187  15.028   5.200   6.533 -0.2679  0.0717  0.3276
20590W        W24188  10.754  14.125   4.548  0.2578  0.1404 -0.4844
20591W        W24189   5.957   4.117   6.734 -0.2300 -0.3084  0.1798
20592W        W24190   1.480   7.844   6.976 -0.2229  0.1350 -0.0043
20593W        W24191   6.700  10.316   6.757  0.1358 -0.0028 -0.2177
20594W        W24192   6.041  12.808  12.744  0.0004 -0.0750 -0.0294
20595W        W24193   7.485  15.225   6.959 -0.1858 -0.0559 -0.1088
20596W        W24194   7.667   6.730  12.406 -0.1141  0.1861  0.4320
20597W        W24195  13.036   4.384  14.701  0.0675 -0.1333  0.0368
20598W        W24196   1.493  10.356   3.508 -0.3321 -0.1665  0.1802
20599W        W24197   0.639   9.616  12.485 -0.2030  0.2268  0.2606
20600W        W24198   8.930   1.360   8.320  0.0220  0.0589  0.2980
20601W        W24199   0.991   6.017   8.866 -0.0822 -0.0888 -0.1720
20602W        W24200   5.591   6.095   7.543  0.2845 -0.3249 -0.2404
20603W        W24201   8.214  14.603   5.248 -0.2248 -0.0033 -0.0809
20604W        W24202   6.653  16.380   1.328  0.0986 -0.0687  0.0096
20605W        W24203  14.044   0.625   0.005 -0.0605  0.3555 -0.0021
20606W        W24204  10.721   4.210   9.752  0.1970 -0.0085 -0.1089
20607W        W24205   8.776   2.781   3.861  0.1526 -0.3357  0.0930
20608W        W24206  15.326   0.425  10.446  0.0556  0.1490  0.1306
20609W        W24207   4.511  10.387   2.943 -0.1743  0.0549  0.0738
20610W        W24208  12.705   8.256   1.885 -0.1903 -0.1678  0.2771
20611W        W24209   4.696  11.341   8.207  0.1954 -0.1313  0.0450
20612W        W24210   8.823   0.699  14.195 -0.2432  0.3032  0.0240
20613W        W24211  13.674   7.596   9.971  0.0049  0.1689 -0.0688
20614W        W24212   7.065   9.334  13.365 -0.0395 -0.5729 -0.0753
20615W        W24213   6.747   4.223   1.388 -0.0766  0.0318 -0.5482
20616W        W24214  14.575  15.219  12.596 -0.2169 -0.0479 -0.1688
20617W        W24215   8.203  11.253   8.941 -0.1661  0.1634  0.0820
20618W        W24216  14.436   9.789   2.401  0.1935  0.3392  0.1834
20619W        W24217   2.789   2.610  15.379  0.2456  0.2161  0.0450
20620W        W24218  15.875   3.081  11.760  0.0728 -0.1320 -0.1555
20621W        W24219   5.564  13.720   3.109 -0.0674  0.2276  0.0261
20622W        W24220  13.147   7.189   8.432 -0.2102  0.1798  0.0463
20623W        W24221   9.636  13.207   1.600 -0.1025  0.0918 -0.1097
20624W        W24222   9.883  12.098  15.389  0.1228  0.2826 -0.2373
20625W        W24223   4.863   0.122  11.673  0.1575  0.1500 -0.0085
20626W        W24224  15.892   3.469   1.187  0.1303  0.1347  0.2617
20627W        W24225   7.087   8.557   9.737 -0.0290  0.1391  0.2416
20628W        W24226  15.563  15.750  16.219  0.2432 -0.0029  0.1743
20629W        W24227   9.122  14.276   7.086  0.1790 -0.0186 -0.5022
20630W        W24228  10.478   6.746  10.528  0.0815 -0.0258  0.0776
20631W        W24229  11.134   2.869   9.949  0.1195  0.0811  0.0492
20632W        W24230   8.724   1.777   4.279 -0.2674 -0.2100 -0.1691
20633W        W24231   3.850  15.469   0.997 -0.0166  0.0875 -0.2294
20634W        W24232   0.693   4.967  13.872  0.0374  0.0963 -0.1017
20635W        W24233   0.110   8.411   8.108 -0.3323  0.0222 -0.1281
20636W        W24234  13.384   4.609  15.470 -0.0727  0.4218  0.1262
20637W        W24235  14.920   4.591  12.417 -0.1359  0.1051 -0.0255
20638W        W24236  14.752   6.678   2.719  0.2505  0.0771  0.0923
20639W        W24237  10.510   9.805  11.095 -0.0838  0.4067  0.1606
20640W        W24238  14.401  11.625   4.754 -0.1687  0.2097  0.1253
20641W        W24239  16.029   3.548  15.476  0.1527 -0.0721 -0.2103
20642W        W24240  14.091   9.780  12.565 -0.2050  0.2388 -0.0177
20643W        W24241   7.219  10.685  10.575 -0.1150  0.1859  0.2266
20644W        W24242  16.289  12.310  11.373  0.1416  0.0426  0.1374
20645W        W24243   9.440   4.462   9.047 -0.2391  0.1169 -0.0507
20646W        W24244  12.893   7.128  16.285 -0.1431  0.1616  0.2553
20647W        W24245   8.790  13.787   9.872  0.1026 -0.0763 -0.2504
20648W        W24246   6.418   3.723   7.282 -0.1136 -0.1169 -0.0597
20649W        W24247  15.901  15.787  13.617  0.0754 -0.0151  0.2640
20650W        W24248  15.329   5.533  16.193  0.1181  0.0320 -0.1467
20651W        W24249   4.422   8.113   8.495  0.0040  0.1434 -0.0931
20652W        W24250   6.744   0.626   9.182  0.1267 -0.2143 -0.4443
20653W        W24251  10.512   5.846  13.161  0.1309  0.1037  0.0508
20654W        W24252   2.597  12.292  11.733  0.1043  0.0979 -0.1355
20655W        W24253   6.347  14.160   0.427  0.1514  0.0511 -0.1243
20656W        W24254  12.208   3.349   8.202 -0.0413  0.1007  0.2267
20657W        W24255  11.856   1.509   9.783  0.1055 -0.1910  0.1140
20658W        W24256  11.228   4.066   2.950 -0.2096 -0.0462 -0.0800
20659W        W24257  12.538   7.580   4.500  0.0143 -0.0645 -0.0012
20660W        W24258  15.994   0.576   2.161 -0.1239 -0.2870 -0.0962
20661W        W24259   5.237   1.937   9.918  0.2460 -0.3241 -0.2349
20662W        W24260  16.038  12.430  14.505 -0.1526 -0.1166  0.2123
20663W        W24261  13.219   6.931  14.030  0.0691 -0.3197 -0.1444
20664W        W24262  16.032   7.316  10.559  0.0516 -0.0145  0.0284
20665W        W24263   8.460  14.742   0.158 -0.3052 -0.2294  0.1223
20666W        W24264  10.553   6.041   1.941 -0.1229  0.0940  0.0252
20667W        W24265   4.688   4.953  15.395  0.1543 -0.1557 -0.2013
20668W        W24266  15.795  13.860  13.334 -0.1412 -0.0803  0.0212
20669W        W24267   9.063  10.908  14.099 -0.1282  0.2272  0.1469
20670W        W24268  11.505   1.305   2.039 -0.0311  0.0898 -0.1544
20671W        W24269   5.207   6.077  12.342 -0.3634 -0.1210 -0.1439
20672W        W24270   0.985  16.110   6.165  0.2026  0.1951  0.1006
20673W        W24271  11.345  10.026  11.497 -0.1718  0.2169  0.3190
20674W        W24272  13.264   0.514   2.517  0.2740 -0.1517 -0.0633
20675W        W24273   4.752   3.234  12.740 -0.5011  0.1749  0.3390
20676W        W24274  11.280   7.420  11.291  0.0686  0.0441 -0.1736
20677W        W24275   1.880  12.073  10.147 -0.2947 -0.0805 -0.0886
20678W        W24276   0.335  10.733  10.466  0.1398 -0.1203 -0.2367
20679W        W24277   9.700  11.845   7.530  0.1055  0.0976  0.1547
20680W        W24278  15.841   9.727   9.825 -0.1388  0.0660 -0.3434
20681W        W24279   2.222   4.607  12.569  0.0788  0.3678 -0.1818
20682W        W24280   6.808  11.840  11.723 -0.0117  0.0876  0.0093
20683W        W24281   0.935   5.646   4.482 -0.1441  0.0141  0.1185
20684W        W24282  14.851   9.208   2.849 -0.3304  0.2438  0.2342
20685W        W24283   4.863   0.238  14.195 -0.1553 -0.2380  0.0213
20686W        W24284   3.902   3.889  14.818  0.0752 -0.4557  0.4105
20687W        W24285  13.520   0.456  10.340  0.0413 -0.3084 -0.4357
20688W        W24286  12.073  12.764   8.044  0.1373 -0.1409 -0.0666
20689W        W24287   7.326   8.507   4.987  0.2265  0.1197  0.4513
20690W        W24288   2.259   2.715  11.280  0.1075  0.0379  0.0839
20691W        W24289   4.357   9.440   4.187 -0.0860 -0.0409  0.3862
20692W        W24290  14.597   8.027   0.055 -0.0775 -0.2915  0.3072
20693W        W24291   4.407   6.654   8.742 -0.0622  0.2083 -0.2206
20694W        W24292  13.364  12.151  15.539  0.2108  0.1146  0.3197
20695W        W24293   2.090   0.473   5.929 -0.1557 -0.0403 -0.0410
20696W        W24294   0.591   7.009   2.390 -0.1114  0.0212 -0.0921
20697W        W24295   5.987   0.201   4.793  0.0370  0.1947 -0.0269
20698W        W24296  14.310  12.010  15.152 -0.1025  0.1778  0.1949
20699W        W24297  15.917   7.955   6.785 -0.2086  0.0231 -0.0763
20700W        W24298  15.208   3.324  10.959 -0.1609 -0.0951  0.0428
20701W        W24299   8.770   9.443   1.425 -0.0602  0.2032  0.0294
20702W        W24300   4.768   9.606   4.627 -0.1328 -0.0384  0.2205
20703W        W24301  14.192   0.729   8.156 -0.1919 -0.1055 -0.0183
20704W        W24302   3.060   7.680  11.596  0.0762  0.0946 -0.0243
20705W        W24303   2.802   8.326  15.017  0.0304 -0.0658  0.0261
20706W        W24304   1.240  10.768  15.627  0.1177 -0.3173  0.0534
20707W        W24305  12.989  11.941   5.009 -0.2891  0.1809  0.0686
20708W        W24306  14.637   1.585   4.323  0.2091  0.0140 -0.2010
20709W        W24307  10.077   0.129   9.066 -0.1954 -0.0536  0.2390
20710W        W24308   4.324   3.383   0.433 -0.0525 -0.3716 -0.0119
20711W        W24309   0.225   8.903  16.249 -0.0885 -0.0890  0.1047
20712W        W24310   5.290  15.748  14.353  0.0779  0.2285  0.0633
20713W        W24311   2.164   5.758   5.148 -0.2698 -0.2475  0.2055
20714W        W24312   2.733  10.419   2.238 -0.0043  0.1503  0.0480
20715W        W24313   2.665   8.924   8.624 -0.1303  0.0413  0.0755
20716W        W24314  14.158  13.055   7.626 -0.0145 -0.3860  0.1118
20717W        W24315   3.623   0.922  13.843  0.0724  0.2418  0.1976
20718W        W24316  14.680   6.728   4.796  0.0614 -0.0097  0.1582
20719W        W24317   3.056  13.705   8.425  0.0684  0.0691 -0.1114
20720W        W24318   7.032  10.099  11.347 -0.2460 -0.1583  0.2181
20721W        W24319   0.547  13.484   4.516  0.2828  0.2413  0.3149
20722W        W24320  11.341   3.516  10.657  0.2128 -0.1424  0.2235
20723W        W24321   8.195   6.620   4.222 -0.2076 -0.0048 -0.0562
20724W        W24322  15.026   2.903   1.807  0.0886 -0.0685  0.0320
20725W        W24323  12.323   4.634   1.006 -0.0070  0.3277  0.1774
20726W        W24324  13.290  10.549  14.412 -0.0496  0.0669  0.3295
20727W        W24325  12.984  13.236   7.641 -0.2019  0.1748 -0.1553
20728W        W24326   6.860   4.489   3.168 -0.0018  0.2444 -0.2604
20729W        W24327   9.042   6.372   7.083 -0.0513 -0.0015 -0.0742
20730W        W24328  11.075   3.335   3.663 -0.1033 -0.1719  0.0693
20731W        W24329   1.148   6.313  11.028 -0.1450 -0.1017 -0.1760
20732W        W24330  14.415   0.998   2.985 -0.0394  0.0934 -0.2793
20733W        W24331  13.218  13.318  11.718 -0.0577  0.1636  0.1060
20734W        W24332  10.624  12.583   2.103 -0.1589  0.1952 -0.0268
20735W        W24333   7.073   5.359  16.106 -0.1257  0.0801  0.1128
20736W        W24334   5.365  13.261   3.099  0.0124 -0.1459  0.0867
20737W        W24335   1.890   6.855   4.088  0.1296 -0.2269 -0.2797
20738W        W24336   1.917  13.632   4.913  0.0291  0.0151 -0.1634
20739W        W24337  10.482   6.722   8.184 -0.0114 -0.0323 -0.0886
20740W        W24338   4.797  13.574   5.781 -0.2031 -0.2875 -0.2308
20741W        W24339  14.741  14.404  13.314  0.0238 -0.1549  0.0381
20742W        W24340   5.841   8.126   9.506 -0.0845  0.0839  0.0942
20743W        W24341   0.809   8.199   0.286 -0.0482  0.1342  0.2666
20744W        W24342  11.752  16.319   2.517  0.0354 -0.0546 -0.1146
20745W        W24343   1.399  15.165  10.901  0.2979  0.0450  0.0440
20746W        W24344   5.843   0.830   2.697  0.0289  0.1623 -0.1381
20747W        W24345   0.592   8.873   1.325  0.2982  0.3040  0.1260
20748W        W24346   2.166   6.240   4.995 -0.0466 -0.1548  0.0473
20749W        W24347   1.000   8.201   5.430 -0.2563  0.1011  0.0654
20750W        W24348  11.513  10.538  12.671 -0.1429 -0.3424 -0.1189
20751W        W24349   7.908  13.213  16.224 -0.4010 -0.1795  0.1706
20752W        W24350   8.222  12.081   4.140 -0.1678 -0.0319  0.1333
20753W        W24351   7.804   9.495   3.426 -0.5109  0.0118  0.1774
20754W        W24352   1.786   5.782   8.715  0.1884  0.1220 -0.2042
20755W        W24353   0.514   2.801   5.314  0.1033 -0.1153 -0.1322
20756W        W24354   4.900  13.553   4.003 -0.0512 -0.1117  0.0411
20757W        W24355  14.609   0.723   5.117 -0.0234  0.1436 -0.1758
20758W        W24356  13.432   7.349   2.778 -0.0062  0.3008 -0.2635
20759W        W24357   6.623  10.545   3.823  0.2194  0.1160  0.0485
20760W        W24358   8.145  12.713   0.613 -0.1470  0.1469  0.1120
20761W        W24359  10.194  14.461  10.523  0.0455  0.0195 -0.0474
20762W        W24360  10.741   1.312   0.633  0.0073 -0.5326  0.1563
20763W        W24361   0.966  15.461   5.163 -0.3440  0.2055  0.1125
20764W        W24362   0.199   8.152   3.425 -0.0175  0.3171  0.4575
20765W        W24363  11.138   6.160   4.712  0.2252 -0.0207  0.0572
20766W        W24364  10.130   6.742  11.374  0.0062  0.2323  0.0622
20767W        W24365   1.834  13.427   3.582 -0.2928 -0.1663  0.1060
20768W        W24366  16.344   1.296   2.760 -0.0013 -0.1811 -0.0580
20769W        W24367  12.080   4.557  15.706 -0.4190 -0.0194 -0.3142
20770W        W24368   0.643   4.277   6.943  0.6124  0.1176 -0.0694
20771W        W24369   3.713   1.467  12.725 -0.0478 -0.1090 -0.3722
20772W        W24370   8.396   6.015   6.042 -0.1050 -0.0397 -0.1317
20773W        W24371   4.404   0.084  14.468 -0.1824  0.1414 -0.0591
20774W        W24372   2.675   1.241   9.440  0.1269 -0.0962 -0.2762
20775W        W24373  11.531   6.009  10.991 -0.0271  0.0697  0.3066
20776W        W24374   6.937  14.357   2.994  0.0570 -0.0938  0.1146
20777W        W24375   8.369   8.835  10.463  0.1251 -0.4207 -0.1726
20778W        W24376  10.735  13.532   7.707  0.2919  0.2589  0.2377
20779W        W24377  16.183   5.568  14.756  0.1300  0.1034  0.2751
20780W        W24378   0.487  13.857   2.020  0.0492  0.1323  0.1955
20781W        W24379  13.584  10.232   6.794  0.3452 -0.1508 -0.0168
20782W        W24380   9.698   2.429   8.487 -0.0736 -0.0564  0.0834
20783W        W24381  12.560  10.540   8.005  0.1884  0.0832  0.1309
20784W        W24382  12.834   5.381   2.136 -0.0653  0.2403 -0.0042
20785W        W24383  14.781  12.621  11.828 -0.1916 -0.0146  0.2556
20786W        W24384   4.582   6.556   1.954  0.1203 -0.0125 -0.0102
20787W        W24385   3.412  12.823   2.942 -0.2596 -0.2050  0.2189
20788W        W24386  13.411   8.826  15.522  0.1361 -0.1803 -0.2627
20789W        W24387  14.176   2.432   2.761 -0.2202 -0.0959  0.4104
20790W        W24388  12.263  11.120   8.532 -0.0762  0.0414  0.3241
20791W        W24389   0.778   8.030   1.320 -0.0554 -0.3190  0.1311
20792W        W24390  15.325   7.120   6.378  0.2212  0.1015 -0.1036
20793W        W24391   6.005   7.559   5.612 -0.0544  0.3580 -0.0392
20794W        W24392   3.831   9.429  10.810  0.1874 -0.0198 -0.0840
20795W        W24393   8.690  12.232   2.843  0.4257  0.1940  0.1991
20796W        W24394   8.749   4.098   1.407  0.2676 -0.0043 -0.2908
20797W        W24395   4.400   7.273   3.416 -0.3895  0.1649  0.0454
20798W        W24396  11.515  12.522   6.037 -0.0408  0.1862  0.1301
20799W        W24397   8.545   3.324   1.811 -0.1694  0.1632  0.0673
20800W        W24398  14.319  12.860   4.281  0.1642  0.0542 -0.1301
20801W        W24399   3.220   8.074  12.184  0.0309 -0.1635 -0.0137
20802W        W24400   3.567   9.664  10.148  0.0089 -0.0811 -0.0399
20803W        W24401  11.575   2.242  14.274  0.1197  0.1570 -0.1993
20804W        W24402  10.017   8.633  12.159  0.1659  0.0412 -0.1950
20805W        W24403  10.548   2.225   9.711  0.2399  0.1178  0.0437
20806W        W24404  15.081  15.603   4.299  0.1368 -0.0018  0.0401
20807W        W24405   9.655   9.973   9.682 -0.0006  0.0162 -0.0891
20808W        W24406   4.083   4.017  10.363 -0.1650 -0.0881  0.0837
20809W        W24407   8.840  15.545  13.035 -0.0051 -0.0800  0.4194
20810W        W24408  12.465   4.894   7.730  0.0962  0.1231 -0.0423
20811W        W24409   7.149   5.767   9.262 -0.2534 -0.1714  0.1770
20812W        W24410  11.059  12.539   5.215 -0.0468  0.3086  0.2025
20813W        W24411   3.406   1.520  11.416  0.1251 -0.1487  0.1293
20814W        W24412   5.625  15.163  14.284 -0.1560  0.2837  0.0355
20815W        W24413   6.571   0.925  14.311  0.3116  0.1466  0.0670
20816W        W24414  12.612   6.644   8.110  0.4709 -0.2861  0.2386
20817W        W24415   7.407  16.069  13.301  0.1226  0.1813  0.0196
20818W        W24416   6.520  10.494  15.866  0.3027  0.1386  0.2632
20819W        W24417  14.199   4.150  11.911  0.2967  0.0097 -0.1187
20820W        W24418  13.982   9.211   1.282 -0.0406  0.1512 -0.1703
20821W        W24419  11.297  11.550  13.104  0.3655 -0.0141 -0.3744
20822W        W24420   9.594   0.819  16.393  0.1593  0.2791  0.0737
20823W        W24421  15.557   1.682  13.051 -0.0893  0.0737 -0.2031
20824W        W24422  15.266  16.241  16.303 -0.4140  0.1303 -0.0118
20825W        W24423  14.963   6.875  12.875  0.1250 -0.0242  0.0552
20826W        W24424   0.827  13.838  10.586 -0.2003  0.2427 -0.2222
20827W        W24425  11.066   0.984  14.001  0.2167 -0.0154  0.0916
20828W        W24426   2.108   6.524  15.465 -0.1801  0.1448 -0.0378
20829W        W24427  13.091  16.169  16.266 -0.0722  0.4323 -0.2866
20830W        W24428  16.348   9.878   4.782 -0.0320 -0.0220  0.0001
20831W        W24429   4.235   4.032  10.912 -0.1131 -0.1710  0.2439
20832W        W24430   2.464   3.845   9.951  0.2340  0.2011 -0.1882
20833W        W24431   6.147   6.261  13.404 -0.1821  0.2339 -0.1480
20834W        W24432   4.855   1.438   1.236 -0.1733  0.0683  0.0306
20835W        W24433  12.691  14.504   0.665 -0.0850  0.1970  0.0309
20836W        W24434   2.394   0.890  11.658  0.1560 -0.2027  0.0738
20837W        W24435  11.850  11.242   5.939  0.3944  0.1294 -0.0819
20838W        W24436   4.761   5.133  15.998  0.2974  0.2353  0.0601
20839W        W24437   5.015  13.965   5.032  0.1416  0.1450  0.1552
20840W        W24438  14.415   6.358  11.900  0.4483 -0.1703  0.2251
20841W        W24439  13.150  14.453  13.786 -0.1207  0.0610 -0.2509
20842W        W24440  15.652   6.606  14.133  0.1766 -0.2139  0.2517
20843W        W24441   8.920   0.204  13.270  0.1867 -0.2395  0.0482
20844W        W24442   4.987   8.314   1.062 -0.1064 -0.0709  0.1276
20845W        W24443   9.817   6.250   4.357  0.0336  0.1162 -0.1069
20846W        W24444   5.535  12.984   3.477  0.0132  0.1232 -0.3605
20847W        W24445  10.029   7.119   3.918  0.1906  0.1059 -0.2038
20848W        W24446  13.163   5.065   4.342  0.1343 -0.1125  0.2316
20849W        W24447   2.201   2.599   2.966  0.2863 -0.2156 -0.1072
20850W        W24448  11.458  16.053   2.142  0.0126 -0.1133  0.2504
20851W        W24449   9.135   2.484  13.406  0.2968  0.3020  0.2195
20852W        W24450   7.057  12.275   5.044 -0.2007  0.0783  0.1513
20853W        W24451   5.174   4.865   4.146  0.0514  0.2701  0.2076
20854W        W24452   1.806   5.715  13.969  0.0038  0.1757 -0.1193
20855W        W24453   3.145  12.068  12.128 -0.4283 -0.1480  0.0119
20856W        W24454  14.158   9.700  11.509 -0.2152 -0.3193  0.0202
20857W        W24455   1.031   4.764   0.849  0.1555 -0.0728  0.0890
20858W        W24456  11.423   7.506   4.714 -0.2742  0.0718 -0.0199
20859W        W24457   6.550   9.470  12.209 -0.2558 -0.0339 -0.3389
20860W        W24458  11.140   4.883  15.537  0.2681 -0.0300  0.1718
20861W        W24459  11.666  11.454   9.298  0.2234  0.1375 -0.1177
20862W        W24460  15.475   5.798  12.226  0.0140  0.0754  0.2252
20863W        W24461   5.524   6.062  15.921  0.0546 -0.2875  0.1627
20864W        W24462   4.310  13.547   5.547 -0.3512 -0.2939  0.2470
20865W        W24463   7.873   4.470  12.599 -0.1376 -0.2074 -0.0091
20866W        W24464   4.548  12.866  14.160 -0.0504  0.1805 -0.2302
20867W        W24465   8.910  12.572   3.637  0.1351  0.1233  0.0932
20868W        W24466   0.629   3.146   0.534  0.1290  0.2156 -0.1164
20869W        W24467  16.240   3.160  15.808  0.1656  0.0572  0.4571
20870W        W24468  11.326   8.418   4.730 -0.2295  0.0721  0.2409
20871W        W24469   8.926   1.902  12.316 -0.1099 -0.3953 -0.4009
20872W        W24470   5.390  13.002   1.280 -0.1617  0.0555  0.0079
20873W        W24471   9.540  12.113   8.885  0.0356  0.0001  0.0500
20874W        W24472   1.562   9.811   1.357 -0.2561 -0.0053 -0.0993
20875W        W24473  13.163   6.554  14.696  0.0962  0.1623  0.3429
20876W        W24474   5.933   2.253   5.896 -0.2815  0.1468  0.2559
20877W        W24475  13.949  11.820  11.298 -0.0277  0.1173  0.1134
20878W        W24476  15.701   3.959   6.329  0.1492  0.0293 -0.1353
20879W        W24477   0.420  13.307   2.916  0.3842 -0.4059  0.1040
20880W        W24478  10.893   0.421  11.204 -0.1617 -0.0269 -0.0262
20881W        W24479  13.868   9.282   5.136 -0.0905  0.1282 -0.2127
20882W        W24480   8.040   2.896   8.605  0.1439  0.1804  0.2740
20883W        W24481   9.792   3.389   6.192  0.0384  0.2111  0.3268
20884W        W24482   0.934   4.019   5.988  0.2092 -0.0378  0.0101
20885W        W24483   8.729   3.008   8.432 -0.0198 -0.1984 -0.1376
20886W        W24484  12.376  11.144  15.157 -0.1881 -0.2875 -0.0702
20887W        W24485  10.478  15.378  12.769 -0.4494 -0.1933  0.2427
20888W        W24486  10.182   4.638  10.014  0.0022 -0.2345 -0.1341
20889W        W24487  12.735  12.990   4.359 -0.1853 -0.0856 -0.3471
20890W        W24488   5.010   2.259  10.854 -0.0630 -0.1047 -0.0639
20891W        W24489   3.201  13.970  14.811  0.1147 -0.0757  0.0545
20892W        W24490   7.898   7.482   9.276  0.1444 -0.1082 -0.0534
20893W        W24491  13.869   6.630  13.794  0.1190 -0.0308  0.0386
20894W        W24492   4.735   8.802   9.151  0.1796  0.1237 -0.0354
20895W        W24493   3.898   6.499   2.209 -0.1877  0.2079 -0.1064
20896W        W24494   8.109  12.004  15.115 -0.1819  0.2610 -0.2799
20897W        W24495   4.456   4.949   2.491  0.1504  0.0862  0.0594
20898W        W24496   7.619   4.618   8.424 -0.1622 -0.2664  0.0389
20899W        W24497   5.181   6.593   2.161 -0.0223  0.0281 -0.0020
20900W        W24498  10.768  12.989  14.994  0.1029 -0.1229 -0.0717
20901W        W24499   6.213  11.569   7.429 -0.3151 -0.0385 -0.4009
20902W        W24500  14.253   4.050   1.884 -0.1423  0.0421  0.6103
20903W        W24501   4.996  11.797  15.033  0.1060  0.0488 -0.1003
20904W        W24502   2.473   3.767   3.917 -0.1208 -0.0832 -0.2683
20905W        W24503  11.769   4.246   6.470 -0.0394 -0.1167 -0.2110
20906W        W24504  12.261  16.091   4.980  0.1495  0.2439 -0.0676
20907W        W24505   1.030   7.767   3.443 -0.0279  0.1848  0.2130
20908W        W24506  15.174   2.173   1.143 -0.1343 -0.1647  0.2618
20909W        W24507   6.376   0.939  14.778  0.0520  0.1856 -0.1946
20910W        W24508  15.909   7.409  11.992 -0.0482  0.0445 -0.0960
20911W        W24509  11.463  11.669   5.645 -0.3354  0.0931 -0.1388
20912W        W24510   0.213   1.593   7.214  0.1582 -0.0981 -0.1815
20913W        W24511   9.463   5.597   3.834 -0.0607  0.1545 -0.0309
20914W        W24512  14.907  11.481   4.161  0.0847 -0.2030 -0.1726
20915W        W24513   9.612   2.488  11.244  0.0595  0.0856  0.0768
20916W        W24514   7.513  16.354  10.080 -0.1330 -0.2241  0.4206
20917W        W24515   0.130   8.767   3.045 -0.0930  0.0945  0.0109
20918W        W24516   1.960  12.450   9.102  0.0873 -0.0777  0.0483
20919W        W24517   3.706   4.621  13.586  0.2996  0.1607 -0.1684
20920W        W24518  12.833   5.955   9.733  0.3390 -0.1227  0.5755
20921W        W24519   0.582   7.091  16.023  0.1769 -0.2101 -0.0228
20922W        W24520  12.331   4.313   1.486  0.3113  0.1243 -0.0395
20923W        W24521   2.335  16.307   2.704 -0.0487 -0.1784 -0.0814
20924W        W24522   2.769   7.869  13.766  0.0373 -0.3160  0.3714
20925W        W24523   3.931   5.496   7.048  0.2518  0.1455  0.1202
20926W        W24524  15.021  13.932   1.496 -0.0288  0.1055 -0.1096
20927W        W24525   8.246   8.237   3.953  0.0798  0.1608 -0.0517
20928W        W24526   7.226  12.256  13.079  0.0397 -0.0450 -0.0903
20929W        W24527   4.510  13.577  11.519  0.1342  0.0313  0.0434
20930W        W24528   0.272   0.223   1.712  0.2285  0.0874  0.0117
20931W        W24529  12.117  16.050  14.737 -0.0916  0.1833  0.1414
20932W        W24530  14.774   3.693  10.250  0.1923  0.1362  0.0357
20933W        W24531   2.002  12.485   1.660  0.0004 -0.0980  0.0032
20934W        W24532   4.192  14.953  11.277  0.0913  0.1307 -0.0655
20935W        W24533   9.307   4.974   6.008  0.1302  0.0988 -0.0880
20936W        W24534   5.273   4.349   0.386  0.0396 -0.0667 -0.1010
20937W        W24535   5.565   8.675  11.232  0.2447  0.0746 -0.0552
20938W        W24536   0.558   2.949   3.381  0.0270 -0.0893 -0.1511
20939W        W24537   1.126   3.960   6.889 -0.0149  0.0008  0.1306
20940W        W24538   0.470   7.913  10.672  0.1274  0.0982 -0.0506
20941W        W24539   9.151   0.410   6.865 -0.1994  0.2861 -0.0452
20942W        W24540   9.381  15.148   0.673  0.1075  0.0077  0.1332
20943W        W24541   8.588   2.888   9.456 -0.3133 -0.1547  0.0630
20944W        W24542   0.798   1.125   3.528  0.0419  0.2366  0.2781
20945W        W24543   4.784  15.321  10.430 -0.0234  0.0254  0.2135
20946W        W24544  10.550   8.809   1.201 -0.1950  0.3143  0.0003
20947W        W24545   7.913   4.592   3.975  0.0272 -0.1035  0.2712
20948W        W24546   3.737  11.614   1.475 -0.1046  0.2827  0.2818
20949W        W24547   4.528  10.244  12.581  0.0778 -0.1236  0.0526
20950W        W24548   8.456   4.786  15.182 -0.1612 -0.1326  0.1537
20951W        W24549  11.676  13.614  11.092 -0.1775 -0.1817 -0.0045
20952W        W24550   4.144   2.776  10.564 -0.1928 -0.0567  0.1017
20953W        W24551   3.177  11.355  11.066 -0.2177  0.1524 -0.1881
20954W        W24552   7.202  14.919   9.828 -0.0966  0.3762 -0.1761
20955W        W24553   4.052  13.551   2.737 -0.2017 -0.0241 -0.0109
20956W        W24554   6.921   0.638   1.994  0.2357 -0.2939 -0.1476
20957W        W24555  10.525   1.946   8.908  0.1843  0.0877  0.1430
20958W        W24556  14.171  14.763   9.257 -0.0545 -0.0423 -0.1109
20959W        W24557   5.248  15.340  14.037 -0.0826 -0.0587  0.0905
20960W        W24558  10.517   7.673  14.873  0.0331 -0.0768  0.1833
20961W        W24559  15.747  12.662   6.904 -0.2271 -0.1089 -0.2723
20962W        W24560   8.999   7.892   1.594 -0.2050  0.1106  0.2552
20963W        W24561   1.286   8.498   4.045  0.0603  0.3019  0.2389
20964W        W24562  13.828  15.905   4.367  0.3867 -0.1162  0.0399
20965W        W24563  11.919   2.618  14.236 -0.2041  0.1761  0.1519
20966W        W24564  10.562  11.492  14.921  0.3262 -0.0278 -0.1188
20967W        W24565   3.209  13.160   4.533  0.2162 -0.0901 -0.1450
20968W        W24566  14.324  10.168   3.670  0.0056 -0.2515  0.0405
20969W        W24567  12.401  10.925   7.203 -0.0038  0.3168  0.0670
20970W        W24568  11.448   3.175   3.345 -0.1069 -0.1217 -0.3520
20971W        W24569   2.019  10.043   1.627 -0.0690  0.0223  0.0315
20972W        W24570   4.561   7.855   3.211 -0.0430 -0.1190  0.0676
20973W        W24571  16.036  14.905  11.318  0.0905  0.0406 -0.0520
20974W        W24572  13.249  16.042   5.656 -0.0234 -0.0596 -0.3194
20975W        W24573  13.165   1.489   9.982 -0.1045  0.0868  0.1400
20976W        W24574  13.838  14.702  11.438  0.0693  0.2708  0.3418
20977W        W24575   3.606  14.888   6.881  0.4986 -0.1813  0.0961
20978W        W24576   3.551   1.186  13.428  0.0561  0.0942  0.0987
20979W        W24577   4.795  15.150   2.724 -0.0508 -0.2804  0.0544
20980W        W24578   2.201  15.258   2.094 -0.1109 -0.1900 -0.1498
20981W        W24579  14.128  10.270   9.955  0.0418 -0.5368  0.1155
20982W        W24580  10.420   5.401   3.761  0.0754 -0.0190 -0.0469
20983W        W24581  14.364   2.498   6.611  0.0487 -0.3456  0.2260
20984W        W24582  13.272   2.067  13.146 -0.0596  0.0197  0.2692
20985W        W24583  16.344   2.522  11.037  0.0836  0.0131  0.0336
20986W        W24584   7.076   8.192  12.430  0.2290  0.0500  0.1419
20987W        W24585   9.885   2.286   2.867  0.4017  0.3331  0.1506
20988W        W24586   7.671   7.969  11.828 -0.2007 -0.0441  0.0928
20989W        W24587   5.211   9.157   5.171  0.0513  0.1928  0.0669
20990W        W24588  15.048   4.675  15.112  0.1080  0.0567 -0.1543
20991W        W24589  14.437   0.567   1.509 -0.2501 -0.0112  0.1699
20992W        W24590  11.438   0.740  14.301  0.1416  0.0618 -0.0994
20993W        W24591   1.490   7.873   5.183  0.1231  0.4634 -0.1540
20994W        W24592  12.436  15.459   6.955 -0.1967 -0.4941 -0.1243
20995W        W24593   5.762   2.028   0.582  0.0747 -0.1000 -0.0458
20996W        W24594  12.760   8.624   3.026 -0.1542  0.3484  0.2634
20997W        W24595  11.024  13.487   6.449 -0.0522  0.1503  0.1675
20998W        W24596  13.009   3.297  11.494  0.1640  0.2122  0.0266
20999W        W24597   1.209   4.661   2.088 -0.0719  0.2033 -0.0847
21000W        W24598   3.344  11.890   2.322 -0.0642  0.3304  0.2534
21001W        W24599  13.457   7.904  12.940 -0.0580 -0.0414 -0.0520
21002W        W24600   5.626   8.410   1.885 -0.2440 -0.3394 -0.2138
21003W        W24601  11.195   4.342   9.959 -0.1151  0.0521 -0.0346
21004W        W24602  12.637   6.359   4.091 -0.2540  0.0303  0.0390
21005W        W24603   2.802  14.220  12.589 -0.0198 -0.0803 -0.0548
21006W        W24604   5.842   4.087  11.688 -0.2339  0.0769  0.0824
21007W        W24605  10.140   5.643  15.439 -0.0197 -0.1212  0.0187
21008W        W24606  11.522  12.807   9.823  0.0774 -0.4563 -0.0516
21009W        W24607  11.220   7.718   4.249  0.2230 -0.0183 -0.0287
21010W        W24608   9.820   3.156   1.190 -0.0705 -0.3944  0.2810
21011W        W24609   5.029   9.573  13.091 -0.0646  0.2041  0.1105
21012W        W24610   5.767   1.435   1.577  0.2090 -0.1290  0.1300
21013W        W24611  15.859   3.987   8.385 -0.0653  0.1222  0.0147
21014W        W24612  15.569  11.776  10.008  0.0625 -0.1690 -0.1533
21015W        W24613  12.806  13.913   9.167 -0.0912  0.1244 -0.1824
21016W        W24614   1.936   3.516  13.922 -0.3434  0.2703 -0.0136
21017W        W24615   8.099   3.440  10.818  0.1514 -0.0125  0.1047
21018W        W24616  12.304   8.303   8.642  0.3637 -0.2175 -0.1761
21019W        W24617   3.395   5.324   2.883 -0.2097 -0.2666  0.0627
21020W        W24618  15.503   4.272  14.615  0.0713  0.0111 -0.2181
21021W        W24619  13.743  13.676  13.155  0.2754  0.3190 -0.1077
21022W        W24620   6.765   5.334   0.414  0.3059 -0.1679  0.1660
21023W        W24621  11.090  16.205   1.870  0.0266  0.0443 -0.1278
21024W        W24622   7.005   0.364   3.470  0.1227 -0.0648  0.4384
21025W        W24623   6.132   0.491  14.387  0.0776 -0.0944 -0.2576
21026W        W24624  12.375   4.028   0.431  0.2433  0.4633  0.2334
21027W        W24625  11.040   1.096  12.388  0.1401 -0.1377 -0.0582
21028W        W24626   0.945  11.785   8.301 -0.0286 -0.1264  0.0200
21029W        W24627  16.134   8.704   5.474  0.4089  0.1983  0.2608
21030W        W24628  10.513   1.391  13.221 -0.0237  0.1622  0.3261
21031W        W24629   5.278  12.586   6.229  0.1515  0.0428  0.1559
21032W        W24630  11.453  15.539   2.324 -0.5261 -0.0616 -0.2463
21033W        W24631  11.532  15.548   6.657  0.0908  0.3559 -0.4576
21034W        W24632  14.850   3.202  15.029  0.2692  0.4092 -0.0661
21035W        W24633  11.475  10.640  14.187  0.2153 -0.2964  0.0857
21036W        W24634   4.543  16.037  11.551  0.3467  0.0632 -0.1149
21037W        W24635  16.205   0.117  15.466  0.3283 -0.0910  0.0426
21038W        W24636   9.396   3.256   4.321  0.1189  0.5384  0.0758
21039W        W24637   3.951  11.241   4.159  0.1946  0.0246 -0.1069
21040W        W24638  15.740   7.261  15.170 -0.2081  0.1797  0.2593
21041W        W24639   8.063   7.469  14.977 -0.0266  0.0434 -0.3085
21042W        W24640   6.448  15.999   2.554  0.0955 -0.0006 -0.3461
21043W        W24641   7.256   7.368  11.071  0.0058 -0.0003  0.1232
21044W        W24642   2.059   5.475  11.980  0.3719 -0.2421  0.4669
21045W        W24643   5.241   9.061   0.568 -0.0661  0.0644  0.0424
21046W        W24644  13.229   1.203   8.338  0.0197  0.2737  0.0515
21047W        W24645  12.883  16.288  12.938 -0.0440  0.0357 -0.1418
21048W        W24646   9.540  12.633  10.618 -0.0338  0.0632 -0.2194
21049W        W24647   7.793   2.822  13.768 -0.2982 -0.0012  0.0337
21050W        W24648   8.188   9.822   8.427 -0.0595 -0.1476 -0.0096
21051W        W24649  14.189  12.949  13.783 -0.1484  0.1289 -0.0733
21052W        W24650  14.985   9.352  14.304  0.0005  0.0556  0.2077
21053W        W24651   8.920   4.712   9.192  0.1463 -0.0335  0.1299
21054W        W24652  13.422   4.440   7.727  0.0777 -0.0705  0.0588
21055W        W24653  13.173   9.534   1.565 -0.5238  0.1774 -0.2246
21056W        W24654   0.625  10.225   0.067 -0.2730 -0.1843 -0.0012
21057W        W24655   1.441   7.629   5.651  0.1207 -0.1207 -0.1950
21058W        W24656   8.573  14.258  14.111 -0.0262 -0.3739 -0.0471
21059W        W24657   4.384   8.583   7.851  0.0685 -0.0337  0.3803
21060W        W24658  13.636   4.099   5.771 -0.2512  0.0269 -0.3423
21061W        W24659  10.317   0.832  14.488  0.3838 -0.0298  0.2790
21062W        W24660  15.058  12.914   9.754 -0.0007  0.0367  0.0131
21063W        W24661   9.483   2.762   8.221  0.0211  0.0965  0.0685
21064W        W24662   1.450   7.942  11.673 -0.0264  0.0556  0.0815
21065W        W24663   6.966   8.427  15.154 -0.1695 -0.0100 -0.2483
21066W        W24664   6.680  14.540  15.531 -0.0291 -0.3065 -0.0557
21067W        W24665   9.930   5.464   3.907  0.1117 -0.0386 -0.0553
21068W        W24666   4.125   1.067   9.346 -0.1975 -0.0166 -0.3987
21069W        W24667   8.878   3.429   2.720  0.1625  0.3165  0.1437
21070W        W24668  11.328   9.284  12.290  0.3156  0.0191 -0.1467
21071W        W24669  14.872  11.917   8.970 -0.0446 -0.0936  0.0306
21072W        W24670  11.949   0.574   7.756 -0.0048  0.2293  0.0281
21073W        W24671   9.210   2.327  12.462 -0.4542  0.0473  0.2580
21074W        W24672   0.177   9.636   1.744  0.3363  0.2546 -0.0750
21075W        W24673   4.911   6.626  10.137  0.1267  0.3250 -0.3482
21076W        W24674  14.835   1.954   7.839 -0.3866 -0.0266  0.3568
21077W        W24675   2.373  14.030   8.135  0.3572 -0.3012  0.0540
21078W        W24676  13.167   9.585  13.356  0.1357 -0.2050 -0.0339
21079W        W24677  12.683  10.667   3.752  0.0309  0.4216 -0.0757
21080W        W24678  10.944   2.046  16.258  0.2327  0.1486  0.1090
21081W        W24679   8.985   1.060  10.671 -0.0023  0.0530  0.0866
21082W        W24680   1.092   6.330   5.772  0.0381  0.0509  0.0273
21083W        W24681   7.700  10.841   2.214  0.1995  0.1761 -0.3117
21084W        W24682  14.097   4.108  15.313 -0.1747  0.2243 -0.1915
21085W        W24683  15.886  11.834  13.591  0.0595 -0.1212 -0.1752
21086W        W24684   5.906   1.466  14.195  0.1248  0.2446  0.2091
21087W        W24685  12.738  14.567   9.040 -0.2372 -0.0997  0.0685
21088W        W24686  16.082  11.731  15.045  0.1047  0.1565  0.3249
21089W        W24687   5.812  12.674   9.228 -0.3739  0.2159 -0.1381
21090W        W24688  15.861   0.296  15.832  0.0210  0.2858 -0.0801
21091W        W24689  13.789   7.418   1.756 -0.1101 -0.1786 -0.2253
21092W        W24690   7.807  11.199   0.201 -0.2237  0.3001 -0.0392
21093W        W24691   8.611   9.619   6.886  0.0943 -0.1475  0.0592
21094W        W24692   0.353   5.749   5.514 -0.1517  0.2805  0.0841
21095W        W24693   6.317  12.062  11.783  0.2594 -0.1954  0.1652
21096W        W24694   1.690   4.879  15.549  0.3147  0.2041 -0.0546
21097W        W24695   3.982  13.627   6.867 -0.2528 -0.0362 -0.2374
21098W        W24696   0.501   2.563  16.179  0.3138  0.2039 -0.4397
21099W        W24697  12.462   4.790   5.083 -0.1973  0.1611  0.1919
21100W        W24698  15.801   0.153   1.419 -0.0134  0.2453 -0.0921
21101W        W24699  15.314   5.419   0.819 -0.1586 -0.2138 -0.1073
21102W        W24700   6.863   9.449   4.406  0.2377 -0.0198  0.1058
21103W        W24701   4.551   7.970  12.233  0.0910 -0.2024 -0.2527
21104W        W24702  11.929   5.593  10.465  0.0845 -0.0292 -0.2860
21105W        W24703  10.283   5.386   7.007 -0.1593  0.0197 -0.3923
21106W        W24704   2.062   2.872   8.343 -0.1056  0.2411  0.1785
21107W        W24705  11.711   1.910  13.532  0.2647 -0.0002 -0.0084
21108W        W24706   4.273  11.944   4.339  0.3755 -0.2611 -0.1592
21109W        W24707  13.417  13.033   1.345  0.3336  0.0632 -0.0438
21110W        W24708  12.416   5.111   1.240  0.2047 -0.0063  0.1107
21111W        W24709   0.787   3.957  14.837  0.0901 -0.0415  0.0794
21112W        W24710  13.147  12.581   3.104 -0.1552  0.0330  0.1162
21113W        W24711  12.684   2.956   6.071 -0.1349  0.0617  0.1121
21114W        W24712   6.617  10.226  13.063  0.0715  0.0196 -0.2862
21115W        W24713  15.675   0.087  13.224 -0.3495 -0.0348 -0.1314
21116W        W24714   1.480   2.357  16.296  0.0932  0.1665 -0.1213
21117W        W24715  12.263  15.751  14.306 -0.2217 -0.3781 -0.0557
21118W        W24716   5.107   3.145   2.547  0.2134  0.3410 -0.2555
21119W        W24717  13.130   0.752  15.897  0.1148  0.3424  0.2381
21120W        W24718   8.273   4.928  12.570 -0.2932  0.1754  0.0791
21121W        W24719   3.547  11.487  11.456  0.1758 -0.0668  0.1814
21122W        W24720   2.844   5.371   7.898  0.3500 -0.2117 -0.3275
21123W        W24721   1.309  15.608  10.382 -0.0261  0.1850  0.2053
21124W        W24722   3.947  12.098   3.995  0.0936 -0.2882  0.0522
21125W        W24723   2.642   7.246  15.152 -0.0168 -0.1725  0.0376
21126W        W24724   8.299   1.325   4.805  0.0864 -0.0584  0.1919
21127W        W24725  16.061   5.046   4.935  0.0763 -0.2734 -0.1334
21128W        W24726  10.888   0.592   3.947 -0.1300  0.0473  0.3555
21129W        W24727  15.157  14.134  11.688  0.1575  0.2147 -0.1635
21130W        W24728  10.828   4.976   9.315 -0.1587  0.0545  0.0647
21131W        W24729   8.589  15.858  12.224  0.3083  0.3531  0.0715
21132W        W24730   0.210   2.014   8.229  0.3732 -0.0460 -0.1859
21133W        W24731   4.216  12.472  14.281 -0.2589 -0.0218  0.0377
21134W        W24732  13.825   9.378  12.455 -0.0871 -0.1323 -0.1040
21135W        W24733   2.695  14.797   6.086 -0.0827  0.0279  0.3632
21136W        W24734   7.097   0.421   2.907  0.1202  0.0110 -0.2407
21137W        W24735  15.918  15.634   6.195 -0.3399  0.0647 -0.1274
21138W        W24736  14.816  11.956   2.192 -0.0355  0.0978  0.0101
21139W        W24737   9.711   8.076   8.581 -0.1564 -0.2301 -0.1587
21140W        W24738   1.324   2.271   1.227 -0.1466  0.1023  0.0595
21141W        W24739  10.900  13.375  12.811  0.2873  0.1581  0.0099
21142W        W24740  12.654   0.457   9.697 -0.2810  0.0791  0.0018
21143W        W24741  14.437   9.443   3.215 -0.0194 -0.0688  0.0042
21144W        W24742  11.275   7.691  11.718 -0.1424 -0.1371  0.0350
21145W        W24743   3.397   1.360   2.926  0.0976  0.2523 -0.2649
21146W        W24744   1.900   9.137   5.594 -0.1377  0.0680 -0.2920
21147W        W24745  13.432   7.080  14.476 -0.3610 -0.3514  0.4682
21148W        W24746   8.925   8.757  14.999  0.0004  0.3655  0.1663
21149W        W24747   6.015   5.881   5.310  0.0031  0.0571 -0.2322
21150W        W24748   9.709   0.897   7.343 -0.0568 -0.1757 -0.0219
21151W        W24749  11.475  14.183  14.954 -0.0483 -0.2526 -0.0767
21152W        W24750   2.459   3.010  11.794  0.0951  0.0435  0.1628
21153W        W24751   2.863   5.057   9.412 -0.1033  0.4354 -0.1090
21154W        W24752   5.895   7.606  13.852 -0.0797 -0.0721 -0.1059
21155W        W24753  10.237   9.628   5.438 -0.5068 -0.3049  0.3735
21156W        W24754  13.728  12.574   6.280  0.0722 -0.0849 -0.3051
21157W        W24755   5.732   5.052   6.611  0.0020 -0.0464 -0.1922
21158W        W24756  10.342   5.461   8.842  0.2260 -0.1435 -0.0573
21159W        W24757  13.098   7.547   1.351 -0.1073 -0.0980  0.2260
21160W        W24758  10.666   4.565  10.145  0.3685  0.1850  0.2535
21161W        W24759   9.398   3.911  16.129  0.0832  0.1085  0.0421
21162W        W24760  14.761  15.508   9.832  0.0095 -0.1040 -0.1110
21163W        W24761   1.277  12.093   4.403 -0.0113 -0.1280  0.0031
21164W        W24762   9.252  14.883   2.321 -0.1461 -0.2736 -0.3177
21165W        W24763   9.038   1.651   1.503  0.1097 -0.2266  0.1293
21166W        W24764   9.366   1.281   2.310  0.1051 -0.2763 -0.0668
21167W        W24765  15.694   5.641   1.625 -0.0435 -0.0458 -0.0546
21168W        W24766   5.292  15.374  16.073 -0.4131 -0.1463  0.1286
21169W        W24767   6.922   1.835   7.188  0.3417 -0.1798  0.3188
21170W        W24768   2.363   2.727  15.604  0.1401  0.1296  0.1214
21171W        W24769  13.325   5.171   3.889  0.0509  0.5503  0.0968
21172W        W24770   5.125  14.428   9.968  0.1417 -0.1616 -0.0725
21173W        W24771   7.913   2.074   2.149  0.1848 -0.2434 -0.0509
21174W        W24772   7.864   1.027   0.256  0.1600  0.1806  0.0239
21175W        W24773  16.103  13.291   7.818 -0.0813  0.3970  0.4033
21176W        W24774  16.234   6.231  13.084  0.1376 -0.1166 -0.0149
21177W        W24775   6.866  11.973   4.218 -0.0399 -0.1455 -0.1750
21178W        W24776  13.681   4.652   7.060 -0.1838  0.1839 -0.0164
21179W        W24777   3.858   9.100   6.670  0.4640  0.0658 -0.3425
21180W        W24778  12.836   0.427  12.902  0.0455  0.3522 -0.0264
21181W        W24779  13.748   9.413   2.615 -0.2697 -0.0802 -0.3468
21182W        W24780   2.824  14.395  16.155 -0.5441 -0.2903 -0.0570
21183W        W24781  12.861   8.924  14.784  0.2938  0.0717  0.1277
21184W        W24782   3.515  10.038   6.378  0.2316  0.5070  0.1616
21185W        W24783  16.292  10.555   4.065  0.1592  0.2540  0.0098
21186W        W24784  14.445   8.299  16.069 -0.1294 -0.2171 -0.0896
21187W        W24785   6.813  11.117   2.566  0.0135 -0.0084 -0.2650
21188W        W24786   1.001   6.072   4.286 -0.2180  0.0386 -0.0338
21189W        W24787  10.264  10.684   6.481  0.0179 -0.2308  0.0424
21190W        W24788   1.758  13.776   9.747 -0.0932  0.0904  0.4180
21191W        W24789   2.421   1.408  12.263 -0.2311  0.1105  0.3693
21192W        W24790  11.850  15.448  14.519 -0.2854 -0.0319 -0.0510
21193W        W24791   8.802   2.044   0.616  0.2350 -0.1143  0.0295
21194W        W24792  12.502   6.490  10.262 -0.3940 -0.0708 -0.2034
21195W        W24793   8.869   5.535  10.282  0.0955 -0.3495 -0.0769
21196W        W24794  13.897  11.509  13.934  0.1595  0.0476 -0.3018
21197W        W24795   4.015   9.210  15.805 -0.0883  0.1539 -0.0486
21198W        W24796  15.448  13.830   3.856 -0.0964  0.0853 -0.2807
21199W        W24797   1.827   0.908  14.324  0.0946  0.1440 -0.2521
21200W        W24798  10.974   2.446  12.269  0.3887 -0.0075  0.0250
21201W        W24799   5.993   9.042  12.732  0.3026  0.0829  0.2281
21202W        W24800  14.356  14.112  12.348  0.1345 -0.1616  0.1423
21203W        W24801   5.106   8.405   0.035 -0.1849  0.0343  0.0018
21204W        W24802   8.379  13.041   8.822 -0.2074 -0.2245 -0.0716
21205W        W24803   4.667   9.448  15.056  0.0979 -0.2779  0.0355
21206W        W24804  10.391   2.440   0.424 -0.1231 -0.0343  0.1654
21207W        W24805   7.115   3.095   8.583  0.2224  0.0168  0.1291
21208W        W24806   5.165  13.717   5.428  0.2722 -0.1518  0.1358
21209W        W24807  15.012  16.249  11.752  0.0907  0.0975 -0.0009
21210W        W24808  12.717   7.611   8.415  0.0880 -0.0947 -0.2884
21211W        W24809   9.952   9.741  15.577 -0.2593  0.1288  0.0348
21212W        W24810  12.615   4.001   1.748  0.2065 -0.1157  0.0709
21213W        W24811  16.384   4.433   3.335 -0.3722  0.1754 -0.0857
21214W        W24812  14.439   5.511  14.396 -0.3279 -0.1236 -0.0810
21215W        W24813  14.926   0.576   9.343 -0.1341 -0.2682  0.0298
21216W        W24814   5.012   7.937  12.386  0.3258 -0.0123  0.1035
21217W        W24815  10.045  12.792  13.306  0.3210  0.0709  0.2475
21218W        W24816   8.774   9.266  10.191 -0.0870 -0.0050 -0.5501
21219W        W24817   4.590  14.386   4.932  0.2109  0.1031  0.1293
21220W        W24818   1.018   6.013   1.549  0.0049 -0.3675 -0.2356
21221W        W24819   3.338  13.563   6.623  0.2265 -0.0031 -0.0989
21222W        W24820   7.324   3.249   6.342 -0.2083  0.3326 -0.0362
21223W        W24821  14.118  12.607   1.455 -0.2338 -0.4290 -0.2168
21224W        W24822   9.258  12.509  14.650  0.0615 -0.2064 -0.0530
21225W        W24823   0.972   3.430  12.078 -0.0834 -0.0475 -0.2843
21226W        W24824   9.233  13.459   9.172  0.3975  0.1302 -0.0768
21227W        W24825  15.845   7.006   4.456  0.1869 -0.0906  0.1434
21228W        W24826   8.806   5.810  15.663  0.0049  0.0750  0.2266
21229W        W24827  13.678   6.543  14.659  0.2851 -0.1084  0.0344
21230W        W24828   3.528  12.891   9.317 -0.2100  0.1462 -0.1062
21231W        W24829   0.251   2.644  15.087  0.2743  0.0179 -0.1624
21232W        W24830   5.820   1.974   5.378 -0.2251 -0.0081  0.0823
21233W        W24831   9.370  13.564   5.523 -0.1223 -0.1883  0.1669
21234W        W24832  11.007   5.271   4.130 -0.0002  0.2487 -0.2312
21235W        W24833  13.979   5.695  11.505 -0.2947 -0.1146 -0.0179
21236W        W24834   9.188  11.757  10.071  0.0009 -0.2763 -0.0548
21237W        W24835   8.034   0.803  12.906 -0.2420  0.1926 -0.0223
21238W        W24836  14.992  14.556  16.269 -0.0758  0.1558 -0.1553
21239W        W24837   0.263  12.877  13.936  0.0775 -0.1962 -0.0394
21240W        W24838   1.030  11.000  16.098 -0.1425  0.1772  0.0868
21241W        W24839  13.166   5.587  10.794 -0.3198  0.1723  0.0765
21242W        W24840  14.009  14.726   6.100 -0.0178 -0.1874 -0.0114
21243W        W24841   4.931  15.724  10.632 -0.1527 -0.1453  0.1216
21244W        W24842  10.537   9.076   9.490  0.0927  0.1002 -0.2250
21245W        W24843  13.883  14.326   9.342 -0.0856  0.1442  0.0823
21246W        W24844  11.228  10.601   1.698  0.1635  0.3568  0.1963
21247W        W24845  14.382   1.945  12.688 -0.2363 -0.2712 -0.1530
21248W        W24846  10.757  15.695  11.769  0.0077  0.0825  0.1744
21249W        W24847  14.381   1.019   0.852  0.1680 -0.1484  0.1910
21250W        W24848  10.408   9.211  16.198  0.0580  0.1276 -0.0037
21251W        W24849   6.249   5.488   8.447  0.2242  0.2588 -0.0345
21252W        W24850   2.180  12.148   8.053 -0.0885 -0.2360  0.0864
21253W        W24851   9.082   8.622   5.992  0.1253 -0.0263 -0.0759
21254W        W24852   1.637  10.867  11.764  0.0606 -0.0747 -0.0080
21255W        W24853   2.355  15.854   5.448  0.1445 -0.0235 -0.0543
21256W        W24854  14.541  10.266   9.633 -0.1838  0.0973  0.0633
21257W        W24855   0.617   6.519   5.679  0.1050 -0.0588  0.0557
21258W        W24856  16.264   9.921  15.872 -0.1369 -0.0083 -0.0767
21259W        W24857   9.402   6.364   7.421  0.1018  0.1606 -0.2663
21260W        W24858   4.895   9.589   1.960 -0.0704 -0.3386 -0.3377
21261W        W24859   0.377  14.914  13.735 -0.0668  0.2221 -0.2390
21262W        W24860   4.280  11.914  10.646 -0.1182  0.2510  0.2745
21263W        W24861   5.164  12.052   6.940  0.2080 -0.0489 -0.2507
21264W        W24862  11.781  10.229   4.295  0.0048 -0.2388 -0.0253
21265W        W24863   3.821   4.145  16.168 -0.0795  0.1447 -0.1040
21266W        W24864   9.618   1.483   9.007  0.3675  0.3507 -0.2110
21267W        W24865   9.372   5.740  15.797 -0.3634 -0.2461 -0.1985
21268W        W24866   6.179   2.622   6.177 -0.0023  0.0239  0.3022
21269W        W24867  16.163  12.465  10.066  0.1279  0.1649 -0.1657
21270W        W24868   9.270   3.051   3.842 -0.0831  0.1033  0.2566
21271W        W24869   1.348  13.683   5.056  0.0441 -0.3356 -0.2583
21272W        W24870   0.001  15.766  11.038 -0.0933  0.1028 -0.2069
21273W        W24871   4.635   4.602   5.945  0.1852  0.0466 -0.0470
21274W        W24872   6.802   2.308  11.439 -0.1170  0.2699 -0.1769
21275W        W24873   3.277  10.685  13.033 -0.1679  0.0827 -0.1546
21276W        W24874   6.901  14.257  10.726 -0.2191 -0.0367  0.0257
21277W        W24875   7.968   8.454  11.233 -0.0932 -0.1389  0.0290
21278W        W24876  16.393   5.873   8.023  0.0028 -0.0833 -0.3380
21279W        W24877  12.069  11.954   1.307  0.0215  0.1508 -0.1449
21280W        W24878  14.119  12.942  10.483  0.1900 -0.1159  0.1997
21281W        W24879   7.708   5.927  13.919 -0.1479  0.0818 -0.1124
21282W        W24880   8.272  11.905   5.957  0.0114  0.1319  0.2075
21283W        W24881  16.298  14.368  10.665 -0.1830  0.0226 -0.0849
21284W        W24882  15.296   6.515  12.453 -0.1167  0.0941  0.2268
21285W        W24883  12.922  10.445   2.083 -0.1917 -0.4255 -0.0359
21286W        W24884  11.227  14.546   0.845  0.1079  0.0570 -0.1966
21287W        W24885  14.501   4.259   6.053 -0.2230  0.1792 -0.1108
21288W        W24886   6.867   5.305  15.063  0.2373 -0.3694  0.0934
21289W        W24887  15.157  15.292  10.598 -0.0582  0.0057  0.1081
21290W        W24888   2.770   6.126  12.928  0.1161 -0.0769  0.0655
21291W        W24889   5.730   0.671   4.294 -0.0567 -0.1077 -0.1747
21292W        W24890  12.381  11.092   2.428  0.0481  0.0072 -0.0998
21293W        W24891  10.304   3.151  15.787 -0.1525  0.1749 -0.3419
21294W        W24892   2.101   7.932  14.473  0.0448 -0.0636  0.6027
21295W        W24893   5.395  16.141   4.265 -0.1501  0.1727 -0.0757
21296W        W24894  15.380   9.520   9.887  0.0354 -0.2036 -0.0882
21297W        W24895   4.827   1.117   4.720  0.0641 -0.0626 -0.0034
21298W        W24896   1.614  10.929   5.548  0.5659 -0.1749 -0.1800
21299W        W24897   7.850  13.118   6.708  0.0202  0.0904  0.0496
21300W        W24898   7.630   3.966   7.625 -0.1442 -0.0695  0.2225
21301W        W24899   6.713  12.880  14.011 -0.2600 -0.7456 -0.1112
21302W        W24900   6.972  12.089  14.985  0.3968  0.0309 -0.0682
21303W        W24901   5.588  10.300   1.565 -0.2606 -0.3713 -0.1326
21304W        W24902  12.029   3.060   9.537  0.2607 -0.0130  0.0347
21305W        W24903   3.408   1.167  10.068 -0.2017 -0.2176  0.1378
21306W        W24904  14.951   1.812  13.809  0.3069 -0.1870 -0.2123
21307W        W24905  13.041   1.162   7.142  0.3220  0.0241 -0.0674
21308W        W24906  10.536   0.711   5.877  0.1795  0.0166 -0.1022
21309W        W24907   4.654  16.130  13.182 -0.1047 -0.0594  0.0209
21310W        W24908  10.879   6.190  12.984 -0.0586 -0.1303 -0.0563
21311W        W24909   9.065   9.178   0.248 -0.1093  0.4382  0.2728
21312W        W24910  15.014   4.046  13.541  0.1208  0.3097 -0.2557
21313W        W24911  15.391  11.761   7.866 -0.0824 -0.0841  0.2274
21314W        W24912   7.913   5.488   1.932 -0.1303  0.2584 -0.0392
21315W        W24913   0.097   3.516   7.140 -0.0695  0.1626  0.0338
21316W        W24914   2.947   7.805   6.204 -0.1236  0.0555 -0.4416
21317W        W24915  15.903   2.893   1.260  0.1141  0.1378  0.3320
21318W        W24916   0.892   2.326   7.466 -0.2144  0.1191 -0.1339
21319W        W24917  16.159   9.680   4.374  0.3557 -0.0001  0.2926
21320W        W24918  11.782   4.068   5.200  0.2248  0.1210 -0.1042
21321W        W24919  12.289  13.265   4.642  0.5069  0.0924  0.0397
21322W        W24920   4.524   0.555  16.328  0.2109 -0.1328  0.5058
21323W        W24921  10.211  14.337   1.243 -0.1726  0.4398  0.1463
21324W        W24922  14.478  15.112  10.168 -0.2529  0.1400 -0.0741
21325W        W24923   8.020  10.211   1.330  0.0732 -0.1036 -0.0876
21326W        W24924   9.982   6.766  15.505 -0.1495  0.2316  0.0042
21327W        W24925  11.844   4.358   7.840  0.1630 -0.1050  0.1006
21328W        W24926   4.052  15.389  13.068 -0.1897  0.0038  0.0373
21329W        W24927   7.211   0.489   7.449  0.2266 -0.0144  0.1562
21330W        W24928  12.133   2.737   6.377 -0.0175  0.1168 -0.0438
21331W        W24929  12.971  15.700  12.758 -0.0861  0.1563  0.0095
21332W        W24930  15.939   0.279   0.425  0.0826 -0.1402 -0.1004
21333W        W24931  14.685  11.222   7.705  0.5862 -0.0516  0.1596
21334W        W24932   9.619  10.819   9.109 -0.0450  0.1638  0.1789
21335W        W24933  10.392  10.361   0.431 -0.1805 -0.1637 -0.0414
21336W        W24934   9.599   7.159   1.657 -0.0186  0.2202  0.3158
21337W        W24935   5.010  12.441   6.633  0.3062  0.1366 -0.1063
21338W        W24936   6.661   3.853   1.782  0.1528  0.2152  0.0778
21339W        W24937  12.503  12.890  16.336 -0.2854  0.4099 -0.1349
21340W        W24938   2.074   4.049   8.494 -0.4212 -0.0680  0.1606
21341W        W24939   2.701  10.700   5.209 -0.1939 -0.2619 -0.1641
21342W        W24940   1.324   2.643  12.758 -0.2148  0.0596  0.2457
21343W        W24941  12.671   4.618   8.093 -0.1628  0.0605 -0.2574
21344W        W24942   4.664  11.131   9.018  0.0376 -0.1795 -0.3221
21345W        W24943  11.498   8.876   7.682  0.2333  0.2516  0.0271
21346W        W24944  14.136   0.749   5.185 -0.3430 -0.1042  0.1942
21347W        W24945  12.368   8.811   6.779  0.2327  0.0657  0.1051
21348W        W24946   8.965   2.690  14.527 -0.1772 -0.2306  0.3092
21349W        W24947   6.803  14.565   0.758  0.2048  0.2642  0.0733
21350W        W24948   6.365  10.233   8.890 -0.2640 -0.0398 -0.0996
21351W        W24949   8.499  13.855   1.472 -0.1086  0.1409  0.0879
21352W        W24950   4.877   5.394  14.692 -0.0156  0.3392 -0.1288
21353W        W24951   4.064   5.544  11.922 -0.5133 -0.0067 -0.0897
21354W        W24952  13.137  13.417   1.432 -0.1117  0.0944  0.0292
21355W        W24953   0.241   4.961  14.189 -0.1911 -0.1223  0.4098
21356W        W24954   1.563  15.467   2.386  0.1356  0.0191 -0.0044
21357W        W24955   7.390  10.859  10.016 -0.1009  0.0875  0.1424
21358W        W24956   4.469   7.621   8.158 -0.4488 -0.1573  0.1610
21359W        W24957  13.974  14.701  10.931 -0.0383 -0.3638  0.2856
21360W        W24958  15.647   8.066   1.383 -0.2063  0.0045 -0.1231
21361W        W24959   7.681   1.154  10.865  0.0225 -0.1618  0.0012
21362W        W24960   3.948  11.506  15.739  0.1896 -0.2887 -0.1401
21363W        W24961   7.429   0.999   8.396 -0.0109  0.0718  0.0336
21364W        W24962   9.468   6.787   4.378 -0.0412  0.0966 -0.1127
21365W        W24963   3.059  15.990   2.646  0.0281 -0.0598  0.1295
21366W        W24964   8.210   4.080  12.460  0.2112  0.0804 -0.1212
21367W        W24965  10.438  12.230   8.535  0.0270 -0.3426 -0.1075
21368W        W24966  14.161  13.853  15.154 -0.0341  0.0036 -0.1809
21369W        W24967  13.466   6.606   1.144  0.1545  0.1532  0.1344
21370W        W24968  12.141   0.596   1.766 -0.2316  0.0469 -0.2673
21371W        W24969  16.192  14.910   8.700 -0.1418 -0.0073  0.0196
21372W        W24970  16.360   2.734  15.568 -0.0665 -0.0965 -0.0183
21373W        W24971  12.020   9.317  14.979  0.0662  0.1478  0.2107
21374W        W24972   3.049   7.972   3.366  0.2625 -0.0990  0.2241
21375W        W24973   3.136   9.621   4.748 -0.0517 -0.0987 -0.0011
21376W        W24974  11.135  11.400   7.147  0.5368 -0.0964 -0.1528
21377W        W24975   5.318  13.877   0.211  0.0380  0.3097 -0.2426
21378W        W24976  14.537   1.831  12.185  0.0430 -0.2176 -0.5381
21379W        W24977   3.720  15.059  15.588 -0.1317  0.1796  0.1651
21380W        W24978  10.922  15.631   0.188 -0.1059  0.1202 -0.4327
21381W        W24979   5.023   5.987   6.574  0.0060  0.0231 -0.1116
21382W        W24980  13.590  14.688   5.333  0.1445 -0.1995 -0.2843
21383W        W24981  12.113  12.116  14.730 -0.0874 -0.1510 -0.4603
21384W        W24982   8.104   1.858  10.204  0.5217  0.0594  0.1159
21385W        W24983  11.883  14.670   6.053 -0.0756  0.1382  0.4548
21386W        W24984   0.293  14.276   8.298 -0.1634 -0.1020  0.1837
21387W        W24985   9.621  11.180  12.876  0.0931 -0.0973  0.2248
21388W        W24986  10.170   8.551   1.258 -0.0368  0.0422  0.2952
21389W        W24987   1.548  16.325   1.905  0.1010 -0.0742 -0.2430
21390W        W24988   7.379   4.043  11.907 -0.2428  0.0786  0.2568
21391W        W24989  12.663  10.182   8.447 -0.1400 -0.1984 -0.1231
21392W        W24990  14.702   2.353  14.106 -0.1981  0.1272  0.2520
21393W        W24991  11.576   8.648   1.091  0.0654  0.3652  0.1136
21394W        W24992   5.393   5.876  11.479  0.2010  0.2596  0.1187
21395W        W24993  15.561  10.473   5.662 -0.2076  0.2092 -0.0512
21396W        W24994   3.572   7.049   3.521 -0.1826 -0.1005  0.0271
21397W        W24995  14.289   9.345   2.660  0.0707  0.1226  0.0801
21398W        W24996   4.232  12.232  11.019 -0.1543  0.1108  0.2422
21399W        W24997  16.028  15.180   3.387 -0.0339  0.1097  0.1406
21400W        W24998  13.339  16.388  10.460 -0.0610 -0.2604 -0.1590
21401W        W24999   2.768  15.709   6.363  0.3297 -0.2340  0.0882
21402W        W25000   0.764   4.806   5.640  0.1932 -0.2146 -0.1702
21403W        W25001   1.045  14.280  12.109 -0.0445 -0.2124 -0.2666
21404W        W25002  10.369  15.178   5.737  0.0651  0.0779 -0.0236
21405W        W25003  15.464  15.297   1.774  0.3059  0.0658  0.0551
21406W        W25004   3.953   7.313   5.292 -0.3390  0.0507  0.4720
21407W        W25005   0.334  14.981  11.617 -0.0657  0.0344  0.1957
21408W        W25006  12.066   2.288   2.515 -0.3068  0.1600  0.2139
21409W        W25007  15.049  10.352   1.320 -0.2589 -0.0309  0.0226
21410W        W25008  16.101   6.605  16.287 -0.2013  0.3849  0.1530
21411W        W25009  15.823  14.609   9.848 -0.1693  0.1374 -0.0411
21412W        W25010  16.191   9.651   6.868  0.1109 -0.1350  0.1003
21413W        W25011  10.828  14.499  16.260 -0.0278 -0.1540  0.2441
21414W        W25012  10.423   9.116   8.063 -0.0948  0.1264  0.1390
21415W        W25013  13.305   8.877   0.921 -0.2928 -0.2438  0.1485
21416W        W25014  14.333   3.153  12.615  0.2469  0.2877 -0.0181
21417W        W25015  16.222   3.763   1.454  0.0038 -0.2069 -0.1008
21418W        W25016  16.124   8.245   8.321  0.3823 -0.1208 -0.0811
21419W        W25017   7.576   7.825  13.144 -0.0035  0.3468  0.1719
21420W        W25018   2.646   4.612   9.578  0.1351 -0.3743 -0.0391
21421W        W25019   7.856  10.527  12.220 -0.2727 -0.1474 -0.1798
21422W        W25020   2.938  14.614   2.445 -0.2404  0.1992  0.0873
21423W        W25021   8.853  16.117  13.136  0.2091  0.0874  0.0836
21424W        W25022  11.611   5.613   0.200 -0.2309 -0.0164 -0.1672
21425W        W25023   6.189  14.530  13.770 -0.2158 -0.0958  0.1773
21426W        W25024   5.889  14.435   0.785 -0.0550 -0.2584  0.3653
21427W        W25025   5.212   1.124  11.379 -0.0816  0.2180 -0.1482
21428W        W25026   7.604  13.851   9.027  0.1096  0.0784 -0.2398
21429W        W25027   6.828  13.499  13.190 -0.0643 -0.1542 -0.1244
21430W        W25028   5.347  14.201  11.562  0.3099  0.2796  0.1532
21431W        W25029  10.048   1.362   2.243 -0.1453 -0.0502 -0.0891
21432W        W25030   4.861  13.920  14.171 -0.0054 -0.3501 -0.0865
21433W        W25031   6.395  12.760   3.865  0.1245 -0.0274  0.1186
21434W        W25032  10.569  14.264  11.622 -0.1908 -0.2943 -0.0415
21435W        W25033   2.138   4.198   7.195 -0.1461 -0.4080 -0.1678
21436W        W25034  16.100   1.760   4.834  0.0015 -0.0941  0.0004
21437W        W25035  13.005   7.890   9.275 -0.2820  0.0245  0.0497
21438W        W25036  10.938  13.388   2.698  0.1392  0.0215 -0.3276
21439W        W25037   1.321   8.825  15.716  0.1612 -0.4228 -0.1909
21440W        W25038  13.518   7.774   9.528  0.0053  0.0514  0.0062
21441W        W25039  11.809  15.391  12.415  0.0862 -0.0664 -0.1941
21442W        W25040   9.056   3.145   1.393 -0.0369  0.1409  0.0242
21443W        W25041  14.685   3.770   1.747  0.0678 -0.0898  0.0328
21444W        W25042   9.146   0.576   0.139 -0.1702 -0.2220 -0.1747
21445W        W25043  14.231   8.494  10.963  0.0080  0.0480 -0.2860
21446W        W25044  11.658  11.898   1.728  0.1288  0.2229  0.1100
21447W        W25045   9.598  10.804   8.063 -0.1411  0.0511  0.3901
21448W        W25046  13.557  12.745   4.690  0.2712 -0.3023 -0.0964
21449W        W25047   0.370   1.590  16.267  0.1365 -0.0099 -0.2178
21450W        W25048  10.965  12.752  11.803 -0.1615 -0.1367  0.0838
21451W        W25049  16.379   8.701   2.142 -0.1172  0.0191 -0.0285
21452W        W25050   9.777  12.203   6.877  0.1927 -0.4258 -0.0608
21453W        W25051   6.611   1.820  13.736 -0.0981 -0.2423 -0.2726
21454W        W25052  11.205   6.786   1.863  0.0220  0.1701  0.1370
21455W        W25053   1.723  10.846   7.969  0.5472 -0.1249  0.0506
21456W        W25054   3.715   9.605  15.871  0.0785 -0.0645 -0.0955
21457W        W25055   6.924  10.623  10.053  0.0817 -0.2353  0.0846
21458W        W25056  13.476   9.638  15.018 -0.1447 -0.1353 -0.2667
21459W        W25057   2.774   7.342  15.729  0.1709 -0.3026  0.0651
21460W        W25058  15.828   9.937  14.187  0.0207  0.1063 -0.1162
21461W        W25059   9.232   9.763  10.555  0.0201  0.0013 -0.1749
21462W        W25060  10.504   0.070   1.365  0.2332  0.0437 -0.2266
21463W        W25061   8.076  16.147  16.259  0.0690  0.1277 -0.1681
21464W        W25062  15.133  12.348   8.821 -0.2618 -0.2462 -0.2655
21465W        W25063   9.522   6.532   4.866 -0.0410 -0.1533 -0.1021
21466W        W25064   6.364   1.838  14.229 -0.0902  0.0406 -0.0847
21467W        W25065   1.146  11.882   6.714  0.1760  0.3525  0.1564
21468W        W25066   6.651   5.102   8.783 -0.1116 -0.2444  0.0999
21469W        W25067  15.149   3.054   9.228 -0.0026  0.4389  0.1644
21470W        W25068   9.493   4.226   6.555 -0.4429  0.1314 -0.3074
21471W        W25069  11.893   8.948   6.725  0.1778  0.5198 -0.0172
21472W        W25070   7.195   4.125   1.796 -0.3236  0.0991  0.0889
21473W        W25071   4.337   6.261  15.191 -0.3174  0.1088  0.0656
21474W        W25072   6.340   8.599  10.346 -0.0708  0.1768  0.1018
21475W        W25073   0.549   4.494  16.313  0.0418  0.3219 -0.3763
21476W        W25074   6.972   1.462  11.619 -0.0867  0.2194 -0.2304
21477W        W25075  14.128  13.564  13.415 -0.0122  0.2286 -0.2340
21478W        W25076  10.062  12.836   8.876  0.0893 -0.2543  0.2614
21479W        W25077   1.615   2.743   7.119 -0.1885 -0.1832 -0.2430
21480W        W25078   4.935   6.397   5.043 -0.0723  0.1736  0.1320
21481W        W25079   6.125   4.390   9.824 -0.0584  0.2979  0.2344
21482W        W25080  10.228   2.293   3.800 -0.0219  0.0540 -0.0504
21483W        W25081  16.312   6.467   2.551 -0.2989  0.1806  0.1855
21484W        W25082   3.220  14.710  13.318 -0.1072  0.0147  0.1112
21485W        W25083  14.678  10.574   8.441  0.1787 -0.0906 -0.3408
21486W        W25084  11.777  12.375  12.947  0.1872  0.0718  0.0641
21487W        W25085  13.660   3.780   3.895 -0.1546  0.1027  0.2009
21488W        W25086  11.394   5.441   1.888 -0.0827 -0.3419  0.0448
21489W        W25087  14.952   7.943   3.249  0.1106  0.1209  0.0876
21490W        W25088   4.611   8.558  14.690  0.1258 -0.0017 -0.0312
21491W        W25089   5.773   8.932   8.153  0.4204 -0.0833 -0.0413
21492W        W25090   5.787  12.925   7.009  0.2749 -0.0391  0.0808
21493W        W25091   7.625   8.008   0.833 -0.0935 -0.0789  0.0356
21494W        W25092  14.361  13.809   0.795  0.0521  0.2677 -0.0388
21495W        W25093   2.585  11.321  11.147  0.5716  0.3045  0.2035
21496W        W25094   7.578   2.179   0.323 -0.0920  0.4001 -0.1000
21497W        W25095   9.525  14.348   4.027  0.2088  0.4564  0.2127
21498W        W25096   6.282   0.548  13.497  0.2922  0.2525 -0.0745
21499W        W25097   3.555   6.588   4.968  0.0995 -0.1843  0.0824
21500W        W25098   6.679   6.043  12.952  0.1993 -0.3763  0.1817
21501W        W25099   7.471  14.823   7.284 -0.1341  0.0105 -0.0649
21502W        W25100  12.409  16.111   1.244  0.0937  0.3072  0.1861
21503W        W25101  11.770  11.018   3.153 -0.0796  0.0662 -0.0527
21504W        W25102   7.494  14.948   5.952  0.3774 -0.2385 -0.1571
21505W        W25103  14.349   3.654  11.585  0.4023 -0.3152  0.2156
21506W        W25104   6.301   6.797   4.154 -0.0338 -0.3025 -0.1543
21507W        W25105   2.626  12.230   7.553  0.1368 -0.1299 -0.0855
21508W        W25106  12.694  13.645   3.865  0.0806 -0.3160 -0.2003
21509W        W25107   9.374  12.439   0.030  0.0611 -0.1138  0.0218
21510W        W25108   7.012   9.508   7.123  0.0875 -0.2376  0.0584
21511W        W25109   5.052   8.758   3.191  0.5332  0.2514  0.0554
21512W        W25110  13.687  14.151   7.250  0.0764  0.0040  0.0555
21513W        W25111   7.717  14.419   0.044  0.4178  0.0472 -0.2523
21514W        W25112   8.056   0.108   3.192  0.0118  0.0149  0.5876
21515W        W25113  11.800   1.841   6.389  0.0713  0.1298 -0.1766
21516W        W25114  14.448   6.853  12.060  0.2356 -0.0605 -0.2924
21517W        W25115   8.972  10.994  15.176  0.1731  0.0878  0.0297
21518W        W25116  15.932  12.867  14.982 -0.1847 -0.0107  0.2629
21519W        W25117   4.190   5.692  15.237  0.1405 -0.1568 -0.1273
21520W        W25118   9.700   7.103   6.146 -0.0163  0.0860  0.0975
21521W        W25119  14.282   6.253  10.242  0.2715 -0.0429 -0.1024
21522W        W25120  14.166  13.233  15.148 -0.0335  0.0802  0.5716
21523W        W25121  12.978   6.454  12.831 -0.3470  0.1653 -0.0743
21524W        W25122   3.762   0.484  11.122  0.0740  0.0218 -0.0188
21525W        W25123   6.421  13.016   6.062 -0.0109 -0.1409 -0.0199
21526W        W25124   0.035  15.996  13.714 -0.2386  0.1931 -0.2049
21527W        W25125  13.161  10.027  11.269  0.1954 -0.0559  0.0625
21528W        W25126  11.058  11.898  16.054  0.0404 -0.0691 -0.0563
21529W        W25127   1.121  10.733   1.440 -0.1449 -0.0468  0.0011
21530W        W25128  12.571   3.167   2.488  0.0426 -0.2467  0.0659
21531W        W25129  12.970   0.317   4.973  0.2599  0.2230  0.0049
21532W        W25130   5.869   6.573  13.676 -0.0700 -0.0897 -0.0114
21533W        W25131   5.294  10.690   7.050  0.0680 -0.1240 -0.0098
21534W        W25132   2.643  15.999   2.440 -0.0896  0.0178  0.0804
21535W        W25133   6.999   9.785   3.754 -0.2817  0.0812  0.1103
21536W        W25134  10.683  15.172   3.100 -0.3257 -0.0225  0.0947
21537W        W25135  14.863   0.652   5.914 -0.3390  0.3411 -0.0184
21538W        W25136   2.288  15.738  14.784  0.1054  0.0498 -0.0309
21539W        W25137  10.260  12.179   0.255  0.2246  0.1472 -0.0177
21540W        W25138  10.748   7.576  14.246  0.2070 -0.1847  0.1093
21541W        W25139  11.560  15.690   6.094  0.2497 -0.0200 -0.0859
21542W        W25140   2.687   9.788   4.103 -0.0612 -0.3760  0.3040
21543W        W25141   9.268   0.854   6.528 -0.0259  0.1480 -0.0513
21544W        W25142   9.484   3.975   8.216  0.2080 -0.1151 -0.1854
21545W        W25143   6.929  12.779   4.285  0.1747  0.2607  0.2180
21546W        W25144  14.605   8.344  14.901 -0.2017  0.1062 -0.1124
21547W        W25145  14.114  10.450   7.549  0.1911 -0.1159 -0.0431
21548W        W25146   9.406   0.112   2.944  0.1699 -0.1330 -0.0858
21549W        W25147  14.599   8.959   2.490  0.0690  0.3926  0.1208
21550W        W25148   4.061  13.560   8.140  0.3605  0.1264 -0.0193
21551W        W25149   1.810   9.656   4.446 -0.1795  0.0997  0.0362
21552W        W25150  11.348   0.059  12.055  0.1826  0.0201 -0.1757
21553W        W25151  15.582   0.603   7.329  0.2859  0.1278  0.1577
21554W        W25152   6.790   7.187  15.470  0.1732  0.1419  0.0761
21555W        W25153  13.174  14.364   4.483  0.1814  0.1130 -0.2420
21556W        W25154  12.606  12.977   8.154 -0.0773 -0.1023 -0.1938
21557W        W25155   2.766  10.155   6.791  0.0398  0.0538  0.1146
21558W        W25156  12.331  14.600   2.021  0.1127  0.0612 -0.1266
21559W        W25157   9.106   4.445   7.121 -0.1414  0.0231 -0.4728
21560W        W25158   0.794   3.665   2.329  0.0220  0.1099 -0.0376
21561W        W25159   2.309  13.598   7.937  0.3817 -0.5069  0.3158
21562W        W25160   1.241  11.592   2.473 -0.0910  0.2429 -0.2210
21563W        W25161   9.755  14.875   9.690 -0.3910 -0.0293 -0.1679
21564W        W25162  14.064   2.011  12.006 -0.1511 -0.1659  0.0448
21565W        W25163   6.417  16.114  15.979  0.0796  0.2253 -0.1803
21566W        W25164  13.958   2.535   7.675  0.2292  0.0150 -0.3116
21567W        W25165   4.760  10.862  13.977  0.6452  0.1566  0.0624
21568W        W25166  14.242   6.560   8.225 -0.0027 -0.2565  0.0136
21569W        W25167   5.061  12.477   8.764 -0.0518 -0.0977 -0.1144
21570W        W25168  14.588   3.632   7.308 -0.2381 -0.0680 -0.0001
21571W        W25169   0.212   0.505   3.706 -0.2300  0.0117  0.1273
21572W        W25170  15.210   6.241   7.001  0.0296 -0.0274  0.1917
21573W        W25171   8.203   9.074   4.880  0.1088  0.5190  0.1522
21574W        W25172   4.866   6.985   3.527 -0.0831  0.0405  0.0495
21575W        W25173   2.934  13.102   8.516 -0.0327  0.2017 -0.0565
21576W        W25174  14.392   2.311   1.801 -0.3169  0.0339  0.4736
21577W        W25175   6.513  15.037   4.932 -0.0779 -0.1501 -0.1098
21578W        W25176   3.942   0.963   4.747  0.2928  0.1972  0.1629
21579W        W25177   9.880   0.541  15.512 -0.1262  0.4477 -0.1802
21580W        W25178  16.193   3.091   7.149  0.1606 -0.2127  0.0072
21581W        W25179   0.106   9.116   8.336  0.0446 -0.0609  0.0823
21582W        W25180   2.303   0.689  15.500  0.0863 -0.1192  0.1281
21583W        W25181  10.798  14.652  13.058  0.1343 -0.1412 -0.1488
21584W        W25182   8.433   6.692  16.092 -0.0179 -0.3713 -0.2037
21585W        W25183   6.048   6.790   8.729  0.1261  0.1361 -0.0684
21586W        W25184   7.323   3.987  11.087 -0.1010 -0.2528  0.3742
21587W        W25185   7.143  12.579   2.305 -0.1086 -0.3538  0.1174
21588W        W25186  15.951   5.840  15.073  0.0383  0.1051 -0.1158
21589W        W25187  13.366  14.025  13.032 -0.2105 -0.3079 -0.0353
21590W        W25188   3.938  14.167  13.801  0.2225  0.1386 -0.1403
21591W        W25189   7.360  13.171   8.698  0.3263 -0.0023  0.0604
21592W        W25190   6.886   8.397   3.072 -0.3422  0.0463  0.2355
21593W        W25191   5.751  14.596   3.747  0.3540  0.0703 -0.2531
21594W        W25192   1.863   4.888  11.427 -0.1708 -0.0567  0.0529
21595W        W25193  14.600  13.364   8.769  0.0758  0.0122 -0.1261
21596W        W25194   2.917   8.087   2.452 -0.0993  0.3978  0.0206
21597W        W25195   9.738  14.314   7.676 -0.0008 -0.0189 -0.2113
21598W        W25196  14.029   7.717   3.448 -0.5573  0.0368 -0.1379
21599W        W25197  11.343  11.143   5.720  0.0058 -0.1332 -0.0530
21600W        W25198   8.734  14.036   2.766 -0.0428 -0.1738 -0.1449
21601W        W25199   2.173   2.745  10.221  0.3155  0.1333 -0.0337
21602W        W25200   3.192   9.607   3.527 -0.0821  0.0801  0.0497
21603W        W25201   8.943   4.754  11.734 -0.1745 -0.0112  0.1659
21604W        W25202  11.851   9.095   9.525  0.2013  0.0771  0.3196
21605W        W25203   3.876   1.397  14.878  0.1746 -0.0411  0.0292
21606W        W25204   1.010   5.611  14.937  0.2267  0.4145  0.2549
21607W        W25205   4.528  15.406  12.085 -0.0165  0.0439  0.1002
21608W        W25206  10.197   2.291   1.779 -0.1192 -0.0677  0.0929
21609W        W25207   7.514   0.214   1.153  0.0178 -0.3054 -0.1124
21610W        W25208   3.464  15.549  10.884 -0.2370 -0.1665  0.1556
21611W        W25209   4.858   0.068   6.497 -0.1727 -0.1154 -0.1188
21612W        W25210  12.147   8.543   5.365  0.0992 -0.1100 -0.1497
21613W        W25211   2.877   4.162   8.232 -0.0455 -0.1438  0.0430
21614W        W25212  11.169   2.394  15.042  0.3412 -0.1815  0.1253
21615W        W25213   6.401  11.848   8.429  0.2293 -0.2322  0.1757
21616W        W25214   8.202   6.537  13.132  0.0157  0.1483  0.1380
21617W        W25215   8.072  13.887   2.537  0.0502  0.0505 -0.1724
21618W        W25216   4.985   0.592   9.825 -0.0309 -0.3027  0.0878
21619W        W25217  11.923  11.018   2.626  0.0013 -0.0074 -0.1975
21620W        W25218  13.211   6.070  14.424  0.0734 -0.1008  0.0498
21621W        W25219  12.658   7.540  11.043 -0.2915  0.0906 -0.1978
21622W        W25220   0.345  10.653   2.708 -0.0665 -0.0352  0.0004
21623W        W25221  13.401   6.209   4.234 -0.0487  0.0573  0.2809
21624W        W25222   6.856   4.013   0.874  0.2252 -0.1348  0.0638
21625W        W25223   7.462  10.139   4.146  0.0624 -0.0969  0.0261
21626W        W25224  14.179   7.260   1.972  0.0779 -0.0003 -0.1529
21627W        W25225   9.595   6.814  12.963  0.1988 -0.2460  0.1373
21628W        W25226   4.789   8.268   9.461  0.0747  0.1960  0.0945
21629W        W25227   7.195  15.352  14.591 -0.2945 -0.3816  0.2749
21630W        W25228   0.465   5.947  13.484  0.1252 -0.1404  0.3232
21631W        W25229  14.261   5.515   5.349 -0.0217 -0.0396 -0.3796
21632W        W25230   2.401   8.620  13.144 -0.2887  0.0364  0.2327
21633W        W25231  13.744  13.891   8.365 -0.1333  0.3590  0.0309
21634W        W25232   7.524   2.956  14.153  0.2303 -0.0464  0.1916
21635W        W25233   0.450  12.542  13.224 -0.1810 -0.1420  0.0816
21636W        W25234  12.339  14.802  14.239  0.0947 -0.1528 -0.1021
21637W        W25235   5.011   3.094   5.904 -0.3147 -0.0057  0.1636
21638W        W25236   2.587  11.442   1.691 -0.0747 -0.0558  0.0268
21639W        W25237   3.126   6.664   3.324  0.0352 -0.2771  0.2011
21640W        W25238   0.994   5.574   2.690 -0.1449  0.0545 -0.1687
21641W        W25239   5.552   9.019   9.533  0.1297  0.2081  0.1855
21642W        W25240   4.284  13.852   7.364 -0.1831  0.2905 -0.0945
21643W        W25241   0.567   6.851   1.940 -0.2241  0.0050  0.2744
21644W        W25242   9.016  12.598  15.549  0.0916  0.2390 -0.3340
21645W        W25243   1.334   7.089   0.651  0.0860 -0.2403 -0.1959
21646W        W25244   6.236   6.158  11.539 -0.1643 -0.0554 -0.0764
21647W        W25245  14.632  11.980   3.508 -0.2596  0.0691  0.0734
21648W        W25246   2.220   8.444   8.120 -0.0102 -0.0641  0.0715
21649W        W25247   1.551  15.519   1.025  0.4415 -0.0224 -0.1561
21650W        W25248  13.629  13.214  14.015  0.0707  0.0422  0.1262
21651W        W25249   1.469   4.234   3.009  0.0498  0.1143  0.0272
21652W        W25250  12.071   3.248  14.073  0.0887 -0.0603 -0.0707
21653W        W25251   5.628  15.388  12.355 -0.1920  0.0510  0.2512
21654W        W25252   4.186   0.345   2.777 -0.1200  0.2268  0.0901
21655W        W25253  16.299  13.796  10.382  0.2478 -0.0306 -0.0705
21656W        W25254   1.439   6.957   4.951  0.0484 -0.1893 -0.2888
21657W        W25255   2.885   7.278  11.334 -0.0919  0.0270  0.2941
21658W        W25256  12.813  10.615   7.203 -0.1150 -0.2108  0.3934
21659W        W25257   0.013   8.522   7.632  0.0933  0.3988  0.1566
21660W        W25258   6.917   7.594   6.547 -0.1412  0.0835  0.1190
21661W        W25259  13.778   8.777  15.136 -0.1945 -0.0728 -0.1328
21662W        W25260   1.110   8.132  14.228 -0.0130  0.0786  0.2650
21663W        W25261  14.317   0.568   9.195  0.1152  0.1485 -0.6662
21664W        W25262  14.152   4.236   5.307  0.3391 -0.0031 -0.4546
21665W        W25263  11.733   9.283   7.334  0.1238 -0.4208 -0.1429
21666W        W25264  11.947  11.157  10.281 -0.0702 -0.0692 -0.1602
21667W        W25265  14.588   3.431  13.018 -0.0587 -0.1150 -0.1687
21668W        W25266   0.483  15.639   1.753  0.0773  0.1631  0.0889
21669W        W25267   1.219   9.509   1.483  0.0123 -0.1430  0.2604
21670W        W25268   1.991   4.666   9.742 -0.1461  0.1911 -0.3860
21671W        W25269   2.896   8.952   9.959 -0.1837  0.3605 -0.0965
21672W        W25270  14.906  15.418   1.373 -0.0566  0.0702  0.3995
21673W        W25271   3.384  15.295   4.583 -0.0346  0.2416  0.2689
21674W        W25272  13.011   5.937  11.153  0.0015 -0.0036  0.1718
21675W        W25273  10.035  11.351   5.798 -0.0553  0.1775  0.1212
21676W        W25274   5.846   9.451   1.324  0.0755 -0.1427  0.0665
21677W        W25275   4.840  12.272   6.214 -0.1244  0.1140  0.0190
21678W        W25276   7.626   2.794  16.367  0.2371  0.0565 -0.1922
21679W        W25277   8.580  13.393  10.513  0.4799 -0.0303 -0.3166
21680W        W25278   9.212   1.803   6.632 -0.2082 -0.0666  0.1903
21681W        W25279   5.860   2.229  13.065  0.0837 -0.0494  0.0840
21682W        W25280  12.986   5.186  13.904 -0.2284 -0.0484 -0.1022
21683W        W25281   5.716   5.039   5.374 -0.0701  0.0794  0.1491
21684W        W25282   2.067   3.257   0.835 -0.0778 -0.1870  0.1176
21685W        W25283   7.129  11.793   1.570 -0.0599 -0.1866 -0.0087
21686W        W25284   6.657  12.392   9.448  0.1040  0.0869  0.0147
21687W        W25285  12.511   3.272  11.401 -0.0896 -0.2009 -0.2888
21688W        W25286   2.302  15.657  12.149  0.0170  0.3806 -0.1501
21689W        W25287  15.715   1.398  13.745  0.0577  0.0523 -0.1355
21690W        W25288   7.978  15.953   6.924 -0.4313  0.0298  0.1517
21691W        W25289   2.307   0.851   4.604 -0.2098  0.0679  0.3327
21692W        W25290   1.100  10.401  14.065  0.1221 -0.1512  0.4115
21693W        W25291   0.320  15.629   2.274  0.0718 -0.1730 -0.2066
21694W        W25292   4.255  12.015  10.111  0.2276 -0.0669 -0.0938
21695W        W25293  15.797   1.676   3.478 -0.1069  0.0441 -0.0437
21696W        W25294  13.508   7.090  16.195  0.0808 -0.3035 -0.2399
21697W        W25295   3.886  10.197  11.252 -0.2249  0.3251  0.1389
21698W        W25296   6.854   5.070   5.937  0.1333  0.1314  0.0409
21699W        W25297   4.522  11.133  12.297 -0.2599  0.1913 -0.2417
21700W        W25298  11.528  14.620  10.614  0.2554  0.3232 -0.0155
21701W        W25299  13.965   2.143  10.634 -0.0581  0.3214 -0.1157
21702W        W25300  13.426  12.326  12.880 -0.0580  0.0568 -0.0242
21703W        W25301   4.071   0.287  11.443 -0.0775 -0.1261 -0.0131
21704W        W25302   0.325   9.628   3.077 -0.1227  0.4485  0.2230
21705W        W25303   8.215  15.528   2.013 -0.1549 -0.0260 -0.0291
21706W        W25304  13.555  14.923  12.566 -0.0302 -0.6089 -0.1614
21707W        W25305   8.220   3.435   7.701 -0.0561 -0.2318 -0.2624
21708W        W25306   7.707   4.094  12.267 -0.0769  0.2365  0.1596
21709W        W25307   4.180   9.111   2.505  0.0054 -0.2716  0.1101
21710W        W25308   7.361  15.875   8.076  0.2554  0.0622  0.1263
21711W        W25309  11.858  13.460   4.355  0.0345  0.3810 -0.1814
21712W        W25310  12.847   9.793  14.649  0.2675 -0.0380 -0.1365
21713W        W25311   7.275   9.430  12.914 -0.0450  0.3293 -0.2651
21714W        W25312   0.155   5.164  14.997 -0.0061  0.1387 -0.2455
21715W        W25313   2.011  16.049   3.753  0.0251 -0.2802 -0.3044
21716W        W25314   7.808  13.499   0.323  0.3644  0.1365 -0.3948
21717W        W25315   3.049   9.196  13.828  0.0394  0.3237  0.0036
21718W        W25316   9.890  11.842  13.192  0.0244 -0.0525  0.2270
21719W        W25317  11.958   5.722   4.420  0.1112  0.1605 -0.0441
21720W        W25318  10.096   3.339   8.262 -0.1765 -0.3109 -0.2535
21721W        W25319   5.375   3.029  11.015 -0.2234 -0.2303 -0.1196
21722W        W25320  14.513   0.145  14.670 -0.0742 -0.2227  0.0791
21723W        W25321   8.042  15.358   2.639  0.0703 -0.2566  0.0275
21724W        W25322   2.908   6.004   7.077 -0.1084 -0.3706  0.1691
21725W        W25323   5.935   4.637  11.723  0.0380 -0.2882 -0.1930
21726W        W25324  13.086  13.063   5.583 -0.1208  0.1722  0.1603
21727W        W25325   4.271   0.522  14.037 -0.0366  0.1150 -0.2823
21728W        W25326   1.309   0.648   7.661  0.0205  0.1737 -0.1186
21729W        W25327  14.675   3.847   3.675 -0.0416 -0.0393  0.1672
21730W        W25328  10.596   5.280  13.180 -0.1416  0.1314  0.2802
21731W        W25329  15.018  16.149   4.123  0.2130  0.2608  0.0410
21732W        W25330   4.857   9.655   2.927  0.3407 -0.0477 -0.0174
21733W        W25331  12.631   4.364  10.531  0.0025  0.3138 -0.4479
21734W        W25332   6.329  13.366  12.994 -0.5552 -0.0987  0.1198
21735W        W25333  12.368   2.195   7.414  0.0811 -0.2936  0.0959
21736W        W25334   1.024   7.997   8.540 -0.3640 -0.0159 -0.0157
21737W        W25335  14.138   8.061   2.396 -0.3020 -0.1257 -0.2904
21738W        W25336  11.114   5.021   7.242 -0.0492  0.0826  0.0115
21739W        W25337   1.664   2.829  11.349 -0.1486  0.0309  0.0277
21740W        W25338   2.415  14.739  12.823  0.0553 -0.1400  0.0046
21741W        W25339   0.979  13.389   8.093  0.1356 -0.1339 -0.4046
21742W        W25340  10.464  12.137   2.036  0.0493  0.3475  0.1326
21743W        W25341  12.207   7.464   4.113  0.0322  0.0697 -0.1561
21744W        W25342  12.021  14.560   8.279  0.0620  0.2864  0.0352
21745W        W25343  12.267   9.006   3.694 -0.0001 -0.3557 -0.0750
21746W        W25344   5.040   6.017   3.224  0.1179  0.0285  0.0963
21747W        W25345   4.726   0.944  12.389 -0.0349 -0.2603  0.2389
21748W        W25346   4.379   1.262   4.942 -0.1773 -0.1907 -0.1794
21749W        W25347   2.474  12.297   0.682  0.2015  0.0393 -0.2324
21750W        W25348   0.043   4.819  15.362  0.1983 -0.0180  0.0443
21751W        W25349   1.541   3.101  15.496 -0.1396  0.1411 -0.0389
21752W        W25350  11.631   7.039   1.794  0.2176  0.2497 -0.0638
21753W        W25351  15.133  10.430  14.752 -0.3793  0.1581  0.0068
21754W        W25352   8.759  14.438   3.513  0.2063  0.0451 -0.1193
21755W        W25353  16.214  15.896  12.350  0.2676 -0.2727  0.2413
21756W        W25354  15.715  11.710   0.427  0.0703  0.1772  0.1223
21757W        W25355  10.696   5.824  15.430  0.0992 -0.1187 -0.0454
21758W        W25356   8.083   7.696  14.493 -0.1133  0.2368  0.1085
21759W        W25357   9.763  13.677   6.991  0.4396  0.1078 -0.1838
21760W        W25358  12.718   1.806   3.632 -0.3540  0.0786 -0.0086
21761W        W25359  15.057   9.017   9.141 -0.0886 -0.0300 -0.2073
21762W        W25360   5.858   9.105  15.163  0.0288  0.2252  0.1234
21763W        W25361   1.565   8.917  14.795  0.0270 -0.2390 -0.1589
21764W        W25362  15.973  11.571   9.743  0.2968  0.1248  0.1115
21765W        W25363   0.573   3.567  11.824  0.0410 -0.1825  0.0255
21766W        W25364  10.486  13.921   2.098  0.1279 -0.2047 -0.4646
21767W        W25365  13.409  15.691  12.472  0.1818  0.1480 -0.2177
21768W        W25366  11.599   0.692   4.319 -0.0571 -0.0680  0.0865
21769W        W25367   2.920   6.488  12.054 -0.0946  0.0589 -0.0427
21770W        W25368  14.787   2.122  10.232 -0.0455  0.1620  0.0669
21771W        W25369   4.161   4.642   8.858  0.0539  0.1328  0.2798
21772W        W25370  10.158  12.219   3.868 -0.0172 -0.0920 -0.2989
21773W        W25371  14.859   3.051  13.290  0.2116  0.1794 -0.3318
21774W        W25372   2.627   2.366   3.044 -0.0516  0.1041 -0.1801
21775W        W25373  11.535  11.849   3.867 -0.0847  0.1594  0.3868
21776W        W25374   8.105   0.796  11.624 -0.0201  0.2624  0.0196
21777W        W25375   3.804   7.740  16.254  0.0712 -0.3614 -0.0016
21778W        W25376   6.092   9.241   8.429  0.1427 -0.4244  0.3600
21779W        W25377   9.233   3.322   1.810  0.0488 -0.0897  0.1069
21780W        W25378   5.126  14.738   8.838  0.1381  0.1133  0.0874
21781W        W25379  11.711   4.562   2.335  0.0651  0.2011  0.0770
21782W        W25380  15.556   8.488   9.923  0.1156 -0.1452 -0.0224
21783W        W25381   9.764  16.135   5.032 -0.1166  0.2261  0.1430
21784W        W25382  12.776  10.545  13.424 -0.3316 -0.0208  0.1394
21785W        W25383   3.799  16.338  10.074  0.1254  0.1349  0.1047
21786W        W25384  16.163   4.385   0.876  0.4786  0.1524 -0.2028
21787W        W25385   8.485   8.877   8.586 -0.1628  0.0436 -0.0420
21788W        W25386  14.433   9.362   1.073 -0.5599  0.1410  0.0051
21789W        W25387   5.956  13.033   1.399 -0.3318 -0.0817  0.1328
21790W        W25388   2.711  10.292   3.964 -0.0103  0.1650  0.0899
21791W        W25389  13.925   6.389   9.188  0.3318  0.0804  0.4301
21792W        W25390   7.315   9.479   7.565  0.0900  0.5702  0.3133
21793W        W25391  11.649  13.069  13.401  0.0020 -0.3596  0.0672
21794W        W25392  12.010   9.110   7.797  0.2658  0.1197 -0.1031
21795W        W25393   8.861   5.282  13.812  0.0482 -0.1854 -0.0525
21796W        W25394   8.605   7.598   9.338 -0.3042  0.1738 -0.0575
21797W        W25395   1.062   9.629   9.619  0.3263  0.3601 -0.0958
21798W        W25396   0.923   6.209  10.072  0.0188 -0.0007 -0.0023
21799W        W25397   2.724   8.452  14.530  0.1535  0.0359 -0.0381
21800W        W25398  15.845   6.767   3.362 -0.0193  0.0713  0.2030
21801W        W25399  13.304  11.546   7.238 -0.0531 -0.1275 -0.0529
21802W        W25400   9.687  13.195   9.303 -0.3878 -0.0818  0.0822
21803W        W25401   3.555  13.731   5.557  0.1087  0.0243  0.1262
21804W        W25402   7.813  13.697   3.808  0.1120  0.1746  0.1393
21805W        W25403   8.181  11.629   7.578 -0.0193 -0.4725 -0.2196
21806W        W25404  14.221  12.654  10.049  0.0580 -0.1178 -0.0726
21807W        W25405  16.059   3.264  12.736 -0.2320  0.1534 -0.0456
21808W        W25406   5.373   8.269  13.648 -0.2714  0.1871 -0.0177
21809W        W25407  10.562   5.906   3.941 -0.1820 -0.0817 -0.2017
21810W        W25408   4.631  15.969  11.043  0.0640  0.1653  0.1409
21811W        W25409   9.313  13.336   3.105  0.2751  0.1641 -0.1362
21812W        W25410   2.787  10.742   0.791  0.0061  0.1373 -0.1957
21813W        W25411   1.269  12.490   0.527 -0.3455 -0.0197  0.0524
21814W        W25412  15.669  11.600   1.009  0.0369 -0.0338  0.0524
21815W        W25413   7.528   0.055   0.125 -0.1996  0.1039  0.2559
21816W        W25414  14.531  14.474   4.330 -0.1197  0.1438  0.0479
21817W        W25415   1.006   5.895   6.998 -0.0004  0.0186  0.3245
21818W        W25416  10.134   9.880   8.234 -0.0086  0.2364  0.1725
21819W        W25417  13.255  16.243  10.945 -0.0845  0.1311 -0.0751
21820W        W25418   2.643   8.521  15.501  0.0949 -0.1074 -0.0989
21821W        W25419   4.292   3.978   9.445  0.0420  0.2782  0.0120
21822W        W25420  15.589   1.665   0.787  0.1426 -0.0985 -0.0789
21823W        W25421   9.892   2.483  14.519  0.0593  0.1251 -0.0884
21824W        W25422  14.314   1.545   0.461 -0.3310  0.3487  0.1267
21825W        W25423  12.806  13.575   2.940  0.0647 -0.0885 -0.1124
21826W        W25424  12.792  10.456   6.469  0.0447 -0.0140  0.2350
21827W        W25425   3.735   8.102  15.902 -0.1559 -0.0968  0.1375
21828W        W25426  16.189  12.933  14.127 -0.1436  0.1748 -0.1295
21829W        W25427  11.168   9.046  11.506  0.1476 -0.1215  0.0376
21830W        W25428   1.257  10.294   4.178 -0.0376  0.2971 -0.1949
21831W        W25429   4.192   2.667   5.294 -0.0104 -0.0529 -0.0927
21832W        W25430   4.825  16.022   6.185  0.0052  0.0315  0.2044
21833W        W25431  13.014  11.740   8.121 -0.3027  0.0334 -0.1161
21834W        W25432  10.461   9.904  13.563  0.4394 -0.1543 -0.0500
21835W        W25433   2.910  12.889  10.959  0.1190 -0.0898  0.5118
21836W        W25434   9.376   9.408   0.577 -0.0529  0.3306 -0.2704
21837W        W25435  12.440   3.599  14.175 -0.1746 -0.1024  0.0318
21838W        W25436   8.690  16.122   5.172  0.2680  0.2370 -0.1515
21839W        W25437   6.201  12.971   0.727 -0.0322 -0.2435  0.1221
21840W        W25438   4.413  10.624   1.005  0.3572  0.0921 -0.1909
21841W        W25439  16.025  13.671   2.591 -0.0513 -0.1270  0.0171
21842W        W25440  11.993   6.373   7.208 -0.3857  0.1584 -0.1060
21843W        W25441  14.640   9.285   7.977 -0.1775  0.2918 -0.0191
21844W        W25442  14.277   5.769   6.321  0.1981  0.0916 -0.2599
21845W        W25443   6.668  11.733  14.410  0.2408 -0.0952 -0.4979
21846W        W25444   4.448  15.079  16.308  0.0057 -0.0500  0.0342
21847W        W25445   2.512   4.541   4.348 -0.0216 -0.1054 -0.2603
21848W        W25446   8.302  16.386  15.696  0.2032 -0.0509 -0.2426
21849W        W25447   1.497   1.094  11.246  0.1476  0.1569  0.0344
21850W        W25448  14.325  11.848  13.820 -0.3445  0.0524  0.1752
21851W        W25449  11.568   4.354   9.614  0.1355 -0.0612  0.3230
21852W        W25450  11.889   2.739   0.272 -0.3535  0.1248  0.1276
21853W        W25451   9.973   8.787   0.374  0.1167 -0.1007  0.0552
21854W        W25452   3.683   5.043   8.307 -0.3816 -0.1437  0.3693
21855W        W25453   6.701   2.984   4.348  0.0945  0.2068 -0.0255
21856W        W25454  10.831   2.978   4.101  0.0137 -0.2042 -0.3573
21857W        W25455   1.692   6.573  15.217  0.4492 -0.0059  0.2498
21858W        W25456  16.316   5.224  12.581 -0.2473 -0.3707  0.0897
21859W        W25457  14.510  11.943  12.918  0.1654 -0.1531  0.0218
21860W        W25458   2.962   3.274   9.736 -0.0222  0.0914  0.5529
21861W        W25459  10.900  15.227  13.034  0.0010  0.2276 -0.3164
21862W        W25460   3.583  14.159   3.071 -0.0668 -0.0769 -0.0319
21863W        W25461   0.241   4.192   1.128 -0.0800  0.3046  0.0640
21864W        W25462   0.304   0.726   1.731 -0.2724  0.0224 -0.0899
21865W        W25463   9.836  11.475  11.736 -0.0511 -0.0448  0.0641
21866W        W25464   3.931   3.154   0.418  0.0441 -0.2666  0.0118
21867W        W25465   3.165   4.213   4.306 -0.1732 -0.1983 -0.3601
21868W        W25466  13.540   0.281   1.416  0.2303  0.1219  0.0762
21869W        W25467   5.035   1.434   5.654 -0.2853  0.0426  0.1441
21870W        W25468   8.765   4.277  12.977  0.3376  0.3365  0.2126
21871W        W25469   7.591  12.419  15.813  0.1641  0.0856  0.0137
21872W        W25470   4.018   5.148   3.323  0.2242  0.1583 -0.1209
21873W        W25471   0.970   3.658  11.552 -0.3806 -0.1568 -0.1429
21874W        W25472   1.827   2.841   5.266  0.1477  0.2112 -0.4516
21875W        W25473   9.388   2.091   6.242 -0.1687 -0.0737 -0.0443
21876W        W25474   0.111   1.483   5.009 -0.0702  0.0611 -0.1249
21877W        W25475   3.730   4.410  11.589 -0.2867 -0.3588 -0.0954
21878W        W25476  15.060   2.494   1.553  0.2181 -0.0229 -0.0787
21879W        W25477   2.126   6.527   0.354  0.0002  0.0698 -0.0089
21880W        W25478   6.458   9.225   4.232  0.2807  0.1396 -0.3527
21881W        W25479   7.698  15.076  12.455 -0.1528 -0.2278  0.0592
21882W        W25480   4.098   6.346  15.996  0.2589 -0.1617 -0.1217
21883W        W25481   0.334   1.590  11.734  0.0102  0.2198  0.0448
21884W        W25482   2.233   4.841   6.351 -0.1987  0.1400  0.0467
21885W        W25483  15.168  10.778   2.632 -0.1538  0.0560 -0.1510
21886W        W25484   2.422   5.525   6.971 -0.1462  0.0279 -0.0245
21887W        W25485  11.829   6.388   8.341 -0.2723 -0.1739  0.2073
21888W        W25486   7.404  11.829  14.880  0.1841  0.3277 -0.2107
21889W        W25487  15.502   8.372   1.762  0.2021  0.0288 -0.1394
21890W        W25488  15.657  14.355   1.702 -0.1855  0.1714 -0.1117
21891W        W25489   1.956   1.238   2.043  0.1735 -0.0929 -0.0218
21892W        W25490  15.301   3.554   6.196 -0.1739  0.0650  0.0078
21893W        W25491  15.642  11.464   6.236  0.1133  0.0453 -0.2471
21894W        W25492  13.363   6.887  15.687 -0.0620 -0.0844 -0.1630
21895W        W25493  13.804   1.145  16.040 -0.2094  0.1226  0.0902
21896W        W25494   1.493   5.601  12.655 -0.1907  0.0926 -0.5983
21897W        W25495   3.391   9.631   8.107  0.0727 -0.0580  0.0860
21898W        W25496   6.533   7.307   0.759  0.1335 -0.1074  0.1503
21899W        W25497   2.680   1.160   0.016 -0.2925 -0.0001  0.2977
21900W        W25498  11.777  12.347  10.476  0.1372  0.0734 -0.2051
21901W        W25499   5.529   8.833   3.306  0.2359 -0.1686 -0.0466
21902W        W25500   2.799   7.437  13.239  0.2651 -0.0225 -0.0260
21903W        W25501   5.232   8.875   8.348 -0.0664  0.0833 -0.0162
21904W        W25502   7.911   2.036   6.863 -0.1138 -0.4812  0.2692
21905W        W25503  11.834   5.004   2.886 -0.0587  0.0162 -0.2118
21906W        W25504  15.553   8.504  13.837 -0.1161 -0.1411  0.0460
21907W        W25505  13.461   6.634   4.001 -0.0036  0.0070  0.1083
21908W        W25506   4.380  13.433   3.875  0.0790  0.2808  0.1248
21909W        W25507   8.507   7.495  14.592 -0.1525  0.0567 -0.0518
21910W        W25508   3.191   5.478   9.444 -0.0803 -0.0128  0.0558
21911W        W25509  13.878   5.440   2.501 -0.1468  0.0784  0.3958
21912W        W25510   2.985   9.468   6.426 -0.2493  0.0312  0.5157
21913W        W25511  13.961  13.998  13.446  0.1185 -0.0634 -0.1059
21914W        W25512   0.595   0.146   6.983  0.1298  0.1240  0.0571
21915W        W25513  10.563   1.258   6.728 -0.1862 -0.2769 -0.1109
21916W        W25514   2.954   3.016   9.298  0.3517 -0.0431  0.3794
21917W        W25515   1.712  13.982   3.634  0.1257  0.1809  0.0632
21918W        W25516   2.194  16.071   7.087 -0.1333 -0.0101  0.0150
21919W        W25517   2.208  15.711   0.349  0.2886  0.0789  0.0272
21920W        W25518   2.418   1.753   7.381  0.1742  0.0977 -0.1392
21921W        W25519  10.673   2.502   2.618 -0.1588 -0.0486 -0.1756
21922W        W25520   9.695   6.056   3.846 -0.3232 -0.1119 -0.1055
21923W        W25521   6.942   3.481   3.783  0.1186  0.3130  0.1074
21924W        W25522   9.244  10.539  11.395 -0.0457 -0.1700 -0.3297
21925W        W25523   4.271  10.456   4.720  0.3375 -0.1423  0.0945
21926W        W25524   6.589   8.542   0.074  0.0065 -0.2160 -0.1283
21927W        W25525   6.596   5.146  10.619  0.0827 -0.0910  0.1674
21928W        W25526   7.636   3.342   5.342  0.0318  0.0431  0.2197
21929W        W25527   6.461   8.596   8.778  0.1854 -0.0260  0.2300
21930W        W25528   1.650   6.076   4.867 -0.1640  0.1398  0.1069
21931W        W25529  13.560   2.983  13.613  0.1235 -0.0653  0.0695
21932W        W25530  14.426   3.011   1.911 -0.1887 -0.0068  0.0709
21933W        W25531  13.103  13.191   9.628  0.3071  0.1110  0.2071
21934W        W25532  10.890   9.028  12.379  0.3136 -0.2545 -0.1021
21935W        W25533   7.946   7.396   3.892 -0.3480  0.0652  0.3249
21936W        W25534  11.862   8.516  15.337  0.0900 -0.0149 -0.2274
21937W        W25535  10.383  11.391   2.953  0.1265  0.0857  0.0410
21938W        W25536   2.793  15.686  11.858  0.0710 -0.2319  0.0065
21939W        W25537   8.665   2.496  13.150  0.2155  0.0751 -0.1443
21940W        W25538  12.566  15.014  10.823 -0.0435 -0.0389  0.1531
21941W        W25539  16.203   8.134   6.257  0.0032 -0.0949  0.0880
21942W        W25540  10.889  11.903   6.240 -0.1977  0.0011  0.0340
21943W        W25541  14.146  13.163   8.465 -0.0422 -0.0159  0.1943
21944W        W25542   7.886  14.077  12.346  0.0569  0.0804 -0.1828
21945W        W25543   9.420  10.092  15.357 -0.0254  0.2081  0.2753
21946W        W25544   5.547  10.658  10.564  0.1969 -0.0401 -0.1653
21947W        W25545  15.794  10.499   2.394  0.2883 -0.0388 -0.0659
21948W        W25546   9.355   7.957  13.431 -0.3630  0.0239 -0.0874
21949W        W25547   9.305   4.931   8.972 -0.0254 -0.0198 -0.1371
21950W        W25548  12.590  15.194  16.180 -0.3852  0.0039  0.0711
21951W        W25549  15.108   9.975  14.256 -0.2404 -0.0299 -0.1806
21952W        W25550  12.103   6.673   9.851 -0.0531 -0.1033  0.1168
21953W        W25551   0.698   8.219   3.462  0.1263  0.0084 -0.0732
21954W        W25552  10.674   8.822   5.050 -0.2506  0.2298  0.0743
21955W        W25553  12.400   2.572   4.890 -0.1672 -0.0256 -0.0723
21956W        W25554   7.503  12.325   7.911 -0.1197  0.1017  0.1632
21957W        W25555   7.665   3.951  12.800 -0.1429  0.1379 -0.2077
21958W        W25556   4.990   8.211  15.366 -0.2724  0.4820 -0.1633
21959W        W25557   4.542   3.966   6.761 -0.2493 -0.1264  0.0423
21960W        W25558   1.117   5.498  11.428 -0.2582 -0.0697  0.2075
21961W        W25559  11.280  12.814  13.778  0.3404  0.0818  0.0269
21962W        W25560   7.414  11.846  11.047  0.0389 -0.3547  0.1784
21963W        W25561   6.639   5.180   7.024  0.1587 -0.1846  0.0143
21964W        W25562   0.896   3.889   7.791  0.0161 -0.1355 -0.1034
21965W        W25563   8.332   7.894  11.737  0.1283 -0.1360 -0.2814
21966W        W25564   3.094   3.357  15.518  0.2778 -0.2248  0.2469
21967W        W25565   6.529   3.090   2.916 -0.1383 -0.1303 -0.1146
21968W        W25566   7.551   6.214   1.786  0.1135 -0.0213  0.0074
21969W        W25567  13.580   7.989  15.792  0.4412 -0.0684 -0.2206
21970W        W25568   9.624   5.756   1.922  0.1524  0.0664  0.0321
21971W        W25569   9.370   3.886   6.895  0.1035  0.1524 -0.1701
21972W        W25570   3.295   3.779   5.754 -0.2482 -0.4461 -0.3372
21973W        W25571   9.645  15.039  10.154 -0.1636  0.0150  0.1813
21974W        W25572   1.973  14.243  10.381  0.1202  0.2959 -0.0185
21975W        W25573  12.829  11.350  12.552 -0.1346  0.1622 -0.0354
21976W        W25574  10.098   3.470  15.365 -0.1392 -0.2469 -0.0929
21977W        W25575   9.749   5.241  10.363 -0.0331  0.0240 -0.2206
21978W        W25576  11.655  11.687  12.166 -0.0143 -0.0022 -0.1777
21979W        W25577   0.963   4.907   9.826  0.0544  0.0532  0.0068
21980W        W25578   7.447   3.434   1.001  0.1218 -0.1062  0.2089
21981W        W25579  14.125   0.288  16.022  0.1284  0.1185  0.2403
21982W        W25580   8.438  11.368  10.553 -0.2058  0.2226  0.1174
21983W        W25581  13.868  14.609   9.746 -0.0537  0.1910  0.1686
21984W        W25582  15.783   0.434   5.980 -0.1267  0.0935 -0.2865
21985W        W25583  14.747  15.233   6.084 -0.0982 -0.2659  0.0059
21986W        W25584  10.500  11.617   7.689 -0.1884 -0.0046 -0.0864
21987W        W25585   8.339   2.953  14.006 -0.1466  0.1875  0.0515
21988W        W25586  16.162  13.739   9.493 -0.0151  0.1328  0.4779
21989W        W25587  16.312   8.055  10.967  0.3084  0.1928  0.4635
21990W        W25588  13.208   6.275  13.281 -0.0325  0.0644 -0.0018
21991W        W25589  14.714  13.458   0.586  0.0051  0.0291 -0.0695
21992W        W25590  13.984   3.115  10.038  0.0175 -0.0637  0.1871
21993W        W25591  11.421   1.496   3.243  0.1236 -0.2551  0.1188
21994W        W25592  15.027  13.475  11.942  0.1775  0.0690 -0.0218
21995W        W25593   4.339  11.563  11.988 -0.2140 -0.0689  0.2175
21996W        W25594   5.325  15.770   6.403 -0.0735 -0.2228 -0.1923
21997W        W25595   6.273   8.111   7.734  0.0420 -0.4513  0.0010
21998W        W25596   0.638   2.847   5.815  0.0189  0.0924  0.3042
21999W        W25597   7.642   2.993   1.027  0.0248  0.1084  0.1888
22000W        W25598  13.000   4.738   6.980  0.1795  0.0521 -0.0277
22001W        W25599  10.376   2.958   0.344  0.0480  0.2135  0.0480
22002W        W25600   5.308   3.521   5.867 -0.1994 -0.0449 -0.1773
22003W        W25601   1.379   8.976   0.144  0.1549  0.4420  0.0102
22004W        W25602   2.642  14.520   1.485  0.2761 -0.2094  0.2733
22005W        W25603   4.125  14.600   4.781  0.0638  0.0768 -0.0393
22006W        W25604   4.760  13.170  14.801  0.2374  0.1366 -0.0153
22007W        W25605  10.686  14.548   0.965 -0.1440 -0.1137  0.2336
22008W        W25606   2.669   6.144  11.758 -0.1453  0.2722 -0.0859
22009W        W25607   6.477   4.705   2.298 -0.2374 -0.2183 -0.0486
22010W        W25608  16.337   2.394  12.084 -0.1424  0.0552  0.0561
22011W        W25609  12.184   4.863  12.100 -0.1857 -0.2684  0.0904
22012W        W25610  15.499   4.947   6.663 -0.0341 -0.2198  0.4202
22013W        W25611   7.706  11.094  10.834  0.1545 -0.1042  0.1952
22014W        W25612   6.310   1.038  12.193  0.2016  0.1671 -0.2370
22015W        W25613   9.359  13.937   8.982  0.1469  0.1454  0.0218
22016W        W25614   2.025   6.279   8.927 -0.0878  0.2145  0.0513
22017W        W25615  15.594   6.589  13.173  0.0710 -0.2844  0.2972
22018W        W25616  10.267   3.231   3.294 -0.0433 -0.1316 -0.2344
22019W        W25617   3.720  13.996   7.402 -0.0866  0.0231 -0.0756
22020W        W25618  11.472   9.205   6.801 -0.0477  0.0386 -0.2464
22021W        W25619   9.264   0.981   8.253  0.2949  0.2398 -0.1187
22022W        W25620  10.303  14.638   7.072  0.0253 -0.0195 -0.0349
22023W        W25621   2.318  15.723   4.953 -0.1632 -0.1187  0.0267
22024W        W25622   3.036   4.641   0.876  0.1147  0.2612  0.0263
22025W        W25623   5.211   3.539  11.097  0.2248 -0.0067  0.1129
22026W        W25624   5.938   2.353  16.090 -0.2399  0.4298  0.1464
22027W        W25625   3.867   9.794   7.870  0.1329 -0.4245 -0.0843
22028W        W25626  13.011   7.536  12.086 -0.1786 -0.0348  0.1210
22029W        W25627   2.959   8.701   1.246  0.1161  0.1046 -0.0710
22030W        W25628   0.947  15.154   6.600 -0.2412  0.1263  0.1118
22031W        W25629  16.223   0.361   5.163  0.1786  0.0922  0.0314
22032W        W25630   8.419   5.540  13.369  0.2141  0.1179 -0.1009
22033W        W25631   5.330   3.035   4.194  0.2242 -0.2316 -0.1361
22034W        W25632   3.594   3.541   5.303 -0.1149 -0.2813 -0.1230
22035W        W25633   5.693   9.499  14.720 -0.2718  0.2043 -0.0247
22036W        W25634  10.836  15.073   5.923 -0.0119 -0.1908  0.0873
22037W        W25635  12.095   9.524   5.618  0.1687  0.1327 -0.0599
22038W        W25636   5.490   6.031  12.832  0.0556 -0.0383 -0.0147
22039W        W25637   3.008   5.989   2.569  0.0310  0.1755 -0.2773
22040W        W25638  13.631   0.186  15.096  0.1511  0.2923  0.0626
22041W        W25639  13.392   9.631   5.731 -0.0421  0.1688 -0.0950
22042W        W25640   5.121   8.073  11.535  0.1231 -0.1030 -0.1197
22043W        W25641   5.734   4.185   5.161 -0.3372 -0.1450 -0.0870
22044W        W25642   7.285  11.203  13.904 -0.1799 -0.0156 -0.0043
22045W        W25643  14.812   0.291  13.513  0.0446 -0.0041 -0.2164
22046W        W25644   8.736   2.600  12.664 -0.1768  0.1093  0.1465
22047W        W25645  12.394   8.245   9.241  0.0026 -0.0668 -0.1803
22048W        W25646   6.434   8.222   4.215 -0.2417  0.0326 -0.1738
22049W        W25647   1.374   9.840   4.176 -0.0278  0.3425  0.1626
22050W        W25648  15.363   3.895  13.027 -0.0510  0.0405 -0.1101
22051W        W25649   4.819   9.894  12.361 -0.0385 -0.1241 -0.0536
22052W        W25650   5.065   9.214   4.703 -0.3010 -0.1061 -0.2582
22053W        W25651   0.811   5.981  13.043  0.1211  0.0099 -0.0344
22054W        W25652   7.402  13.008  11.262  0.0941  0.0723  0.1015
22055W        W25653  14.921  13.475   3.506 -0.4154  0.0697 -0.1006
22056W        W25654   4.555   2.289   1.186 -0.1670  0.1082 -0.1987
22057W        W25655   9.027   6.325  10.021 -0.1432 -0.1904 -0.1825
22058W        W25656  15.988   6.841  14.951 -0.2235 -0.0838  0.4200
22059W        W25657   2.186   1.086  13.723  0.4094  0.0400  0.2081
22060W        W25658   4.430   1.458   1.908 -0.0466 -0.0199 -0.1968
22061W        W25659  14.391  15.034  14.234  0.2213 -0.0107 -0.0971
22062W        W25660   1.332  10.246   1.152 -0.0323 -0.0648  0.3210
22063W        W25661  13.888   8.995  16.284  0.0496 -0.1070 -0.1598
22064W        W25662   9.814   1.017  15.679  0.1763 -0.0395  0.0124
22065W        W25663   3.397  14.438   1.957  0.1422 -0.0284  0.0332
22066W        W25664   6.892   3.432  10.553  0.2621  0.0069 -0.1356
22067W        W25665  10.342  10.879  15.896 -0.1785  0.2674 -0.1378
22068W        W25666   9.858   0.044  13.182  0.1679  0.0084  0.3531
22069W        W25667   8.857   4.362  14.071  0.2093 -0.0625  0.0394
22070W        W25668   9.527  10.440  10.998 -0.1690 -0.3745  0.2384
22071W        W25669   5.921  14.331   7.940 -0.2116  0.0275 -0.1434
22072W        W25670   0.249   7.946   8.084  0.0142 -0.2166 -0.0368
22073W        W25671  12.795  11.090   2.861  0.4725  0.1318 -0.0547
22074W        W25672   9.129   2.413   0.378 -0.0713  0.3187  0.1463
22075W        W25673   4.814  13.238   7.860  0.0709  0.1754  0.2077
22076W        W25674   4.964  14.615   6.896  0.0655 -0.1614  0.2395
22077W        W25675   5.295  12.028   9.751 -0.1000 -0.1303 -0.2196
22078W        W25676   8.161   1.677  14.352  0.0759 -0.1319 -0.1719
22079W        W25677   4.448   8.722  11.017 -0.3307  0.1205  0.2357
22080W        W25678  10.304  11.955  14.571 -0.0503  0.1964  0.1117
22081W        W25679   4.723  13.286   8.868 -0.5813 -0.0251 -0.1033
22082W        W25680   1.216   0.616   6.342  0.0898 -0.1715  0.0479
22083W        W25681   5.682   3.243   6.100  0.2409 -0.0020 -0.0453
22084W        W25682   6.392  10.175   2.607 -0.0673  0.0031  0.0925
22085W        W25683  13.482  12.753   2.772  0.1475 -0.0439  0.0671
22086W        W25684  10.949   4.984  10.291  0.3838  0.1841  0.2264
22087W        W25685  10.967   3.331   6.081  0.0763 -0.1645 -0.3047
22088W        W25686   1.719   4.626   2.481 -0.2741  0.2079  0.2618
22089W        W25687   5.458   2.096   6.718  0.1413  0.0299  0.0919
22090W        W25688  10.818  14.314   1.939 -0.2324  0.5504  0.5438
22091W        W25689  13.586   9.789  12.074 -0.0834 -0.1837 -0.0757
22092W        W25690   3.003  15.444   9.076  0.1979  0.1222 -0.2628
22093W        W25691  14.777  12.407  15.884 -0.3021 -0.1882 -0.0833
22094W        W25692  12.025  11.146   0.035 -0.1807 -0.1715  0.0402
22095W        W25693   3.144   0.836  12.762  0.2905  0.2129  0.3802
22096W        W25694   7.359   6.373   6.705  0.0929 -0.0017 -0.3132
22097W        W25695   8.495   7.747  10.194  0.0274 -0.0556  0.1278
22098W        W25696  11.766   7.042   9.582  0.2969  0.0180 -0.1974
22099W        W25697   8.725   1.549   7.083 -0.2438 -0.0021 -0.2096
22100W        W25698  15.130   5.524  15.618  0.1331 -0.1980 -0.3018
22101W        W25699   6.972  10.823  15.822  0.0341  0.2444 -0.1331
22102W        W25700   3.266   6.574   9.759 -0.0291 -0.1811 -0.0887
22103W        W25701   0.075   0.875  15.581 -0.1094  0.2165 -0.3338
22104W        W25702   8.509   5.301   2.806 -0.0247  0.1214  0.0189
22105W        W25703  15.285   9.222   3.138  0.0852 -0.0144  0.3812
22106W        W25704   7.294   2.614   8.561  0.0638  0.0825  0.0491
22107W        W25705   0.633   8.401   7.904 -0.0272  0.4161 -0.0148
22108W        W25706  13.614  16.260   2.762  0.1000 -0.3443  0.1727
22109W        W25707   4.263   1.053  14.532 -0.0196 -0.2197  0.0248
22110W        W25708  13.347   2.524  13.840 -0.1506  0.1603  0.2354
22111W        W25709   7.981   9.081   3.919  0.1313  0.3019  0.2272
22112W        W25710   9.562   7.527   7.302  0.0506  0.2168 -0.0104
22113W        W25711  10.945  15.866   0.819  0.1325 -0.1079  0.0092
22114W        W25712   9.284   7.862   4.915 -0.2270 -0.0836  0.1457
22115W        W25713   8.544   7.199   8.418  0.1154 -0.0773 -0.3835
22116W        W25714   6.768  11.073   4.389  0.0139  0.0813 -0.1468
22117W        W25715   6.425  10.728  10.443 -0.3389 -0.1029 -0.2707
22118W        W25716  15.123  14.223   7.016 -0.0729 -0.1045 -0.0683
22119W        W25717   7.732   2.580  14.435  0.0877 -0.2125  0.1095
22120W        W25718  12.892   4.203   0.310 -0.2861  0.1007 -0.1464
22121W        W25719  13.133   7.734   6.553  0.0202 -0.0098  0.2463
22122W        W25720   1.074  15.271   8.500 -0.0484  0.2872  0.0019
22123W        W25721   2.629  11.674   6.193 -0.0042 -0.1914  0.1895
22124W        W25722  13.044  11.242   0.567  0.1653  0.0754  0.1255
22125W        W25723   3.136   5.946  16.061 -0.0531 -0.0426  0.1785
22126W        W25724   5.800  11.977  11.615  0.0307  0.0337  0.4030
22127W        W25725  11.299   6.896   4.569 -0.0209 -0.0181  0.3099
22128W        W25726   4.576   3.548  13.154 -0.0789 -0.1439 -0.1136
22129W        W25727  10.730   6.361  14.913 -0.4366  0.0020 -0.0321
22130W        W25728   8.481  14.112  10.864 -0.1948  0.0813  0.1125
22131W        W25729   4.018   9.584  10.376  0.0118  0.3261  0.0052
22132W        W25730  14.854  13.022   0.783 -0.0463 -0.3152 -0.4954
22133W        W25731   2.064   6.024   6.011  0.2086  0.0157  0.2514
22134W        W25732   8.650   9.808   8.634  0.1297  0.0781 -0.0670
22135W        W25733   8.962   8.963  15.645 -0.4068 -0.1461  0.0782
22136W        W25734   9.534   2.792  13.294  0.1371  0.0058  0.1521
22137W        W25735   4.145  11.652   3.892  0.0703 -0.1142 -0.0477
22138W        W25736  15.390  15.567   9.112 -0.0092  0.0727 -0.0821
22139W        W25737  11.925   3.838   8.020  0.1373 -0.1438 -0.0306
22140W        W25738   6.339   8.772   1.278  0.0517 -0.1920  0.2511
22141W        W25739  11.102  13.505   4.385  0.2879 -0.2677 -0.1521
22142W        W25740  12.080   3.542   9.345 -0.0133  0.0048  0.1844
22143W        W25741   2.820   4.827  13.053  0.1846 -0.0790 -0.3650
22144W        W25742  16.370   4.804  12.839  0.1831  0.0314 -0.1019
22145W        W25743   9.873   7.847   3.401  0.0450 -0.2487 -0.1670
22146W        W25744   8.897  14.676  13.881 -0.0369  0.3957  0.0958
22147W        W25745  10.818  11.698   2.110 -0.3409  0.0499  0.0075
22148W        W25746   0.801  12.531  14.695  0.0322 -0.0012 -0.0450
22149W        W25747   4.762   0.858   8.705 -0.0757 -0.0227 -0.3010
22150W        W25748   9.273   1.161  15.657  0.0860 -0.1581 -0.0668
22151W        W25749   2.746  13.050  10.506  0.1338 -0.1822 -0.1903
22152W        W25750   0.169  11.387  15.921  0.0414 -0.4199  0.0033
22153W        W25751  13.974   2.324   4.848  0.0604 -0.3720  0.0367
22154W        W25752   5.348  10.884   1.772 -0.1750  0.1285  0.0512
22155W        W25753   8.141   8.450  12.952  0.0368 -0.0085  0.1590
22156W        W25754  11.119  12.496   7.274  0.1155  0.2519 -0.2159
22157W        W25755   5.113   5.298   8.928 -0.1602 -0.0973 -0.3247
22158W        W25756  11.189  10.826  11.909  0.0034 -0.1164  0.2002
22159W        W25757  11.896   5.874   4.964 -0.2232 -0.0734  0.1068
22160W        W25758   6.217  11.223   0.985  0.2199 -0.1823  0.0860
22161W        W25759  12.328  12.406   6.409  0.0015 -0.2246 -0.0903
22162W        W25760  11.578   8.049   4.563 -0.1039 -0.1280 -0.1544
22163W        W25761  12.908   8.679  15.337 -0.0551  0.4723  0.0091
22164W        W25762   5.837   2.339   9.995 -0.2231  0.0450 -0.2212
22165W        W25763   9.439  15.201   5.235 -0.1669  0.2448  0.1068
22166W        W25764   7.711  14.998  16.040 -0.1218  0.2072 -0.1679
22167W        W25765  14.299  12.949   8.948 -0.2315  0.1050  0.1348
22168W        W25766  11.882   1.690   0.162  0.0469  0.1219  0.4241
22169W        W25767  16.333   9.047  14.159  0.2658  0.0437 -0.0043
22170W        W25768   2.945   1.974   4.331 -0.2745 -0.2021  0.0425
22171W        W25769   7.331   0.958   7.899  0.0740 -0.0648 -0.0081
22172W        W25770   1.355   5.919   0.200  0.0973  0.1367  0.0902
22173W        W25771   7.623   1.567  11.791  0.1022  0.1194 -0.0618
22174W        W25772   3.645   4.450   3.458  0.0905 -0.0501  0.0395
22175W        W25773   5.047   3.781   4.076  0.1986  0.0037 -0.1149
22176W        W25774   8.501   2.979  11.634 -0.0247 -0.3846  0.0362
22177W        W25775  10.401   5.522  15.854  0.0247  0.0074 -0.0337
22178W        W25776  11.074   1.957   4.072  0.0943 -0.0957  0.0206
22179W        W25777   0.625   5.160   2.717 -0.2059  0.0173 -0.0876
22180W        W25778  10.576   5.743   2.786 -0.3854 -0.1090  0.4076
22181W        W25779  10.816   0.408   2.940 -0.3554 -0.0451  0.1461
22182W        W25780  14.555  14.776  15.969  0.0409  0.2170  0.1695
22183W        W25781   3.733  13.512  15.635  0.0096  0.0405  0.1571
22184W        W25782   9.024   7.086   0.251  0.1962 -0.2311  0.1297
22185W        W25783   6.028   3.545  10.468  0.0691  0.0469 -0.3756
22186W        W25784  10.277   8.064  13.426  0.0505 -0.0345  0.1490
22187W        W25785   4.450   6.085  14.346 -0.2338 -0.1196  0.0049
22188W        W25786  12.958   0.638  13.586  0.1265 -0.0223  0.2375
22189W        W25787   5.898   6.821   3.050 -0.0374  0.1492  0.1020
22190W        W25788  12.969  13.295   2.390 -0.0424 -0.0551 -0.0297
22191W        W25789  13.618  11.312  11.061  0.1091  0.2320  0.2263
22192W        W25790   5.629   8.313  10.804 -0.0545  0.2197 -0.0466
22193W        W25791   0.960  15.926  16.062 -0.1632 -0.2126 -0.0372
22194W        W25792   1.192   6.891  12.559 -0.2733  0.0931 -0.1578
22195W        W25793   3.568  14.348  11.959  0.1409  0.1674 -0.0969
22196W        W25794   9.480  11.723   6.249  0.1156 -0.0988  0.0008
22197W        W25795  14.776   3.438  11.161 -0.2965  0.1124 -0.0890
22198W        W25796   2.324   8.637   3.618  0.2594  0.0138  0.0770
22199W        W25797   0.276  14.785  15.703 -0.1941 -0.2518 -0.4656
22200W        W25798  15.733   1.912  10.162 -0.1841  0.0535 -0.1748
22201W        W25799   2.889   8.846  14.834 -0.0244 -0.2209 -0.0382
22202W        W25800   3.111   1.177   5.109 -0.3146  0.3408  0.2487
22203W        W25801   5.010  14.200   4.569  0.1290 -0.1960  0.0867
22204W        W25802   6.968  13.668  11.915 -0.2426  0.0794  0.0933
22205W        W25803   4.474  13.818   0.524  0.0560  0.1169 -0.3352
22206W        W25804   2.780   8.488  10.488  0.3323  0.1534  0.0366
22207W        W25805  12.635   7.638  16.272  0.0917  0.2172 -0.0805
22208W        W25806   7.396   4.405  12.847  0.0142 -0.4397 -0.0128
22209W        W25807  11.279   0.247   4.885 -0.0759  0.2498 -0.0302
22210W        W25808   2.957   5.141  15.397 -0.2328  0.1658  0.2061
22211W        W25809   2.878  10.243  14.216  0.1571 -0.1194 -0.3614
22212W        W25810  14.906   4.641   3.427 -0.2469 -0.0400 -0.4559
22213W        W25811   0.510   7.363  10.920 -0.1983  0.0378 -0.1381
22214W        W25812   2.155  10.661   1.606  0.0593  0.2578  0.2434
22215W        W25813  15.093   5.026  13.941  0.1624  0.1728  0.0721
22216W        W25814  13.359   1.925  11.240 -0.0311 -0.1261 -0.0068
22217W        W25815  14.618   6.240   8.489  0.0739  0.1143 -0.0771
22218W        W25816   2.349  10.457   3.409  0.3608 -0.2539  0.0757
22219W        W25817  10.522  10.275  10.980 -0.2180  0.1430 -0.0132
22220W        W25818   9.650   1.107   3.248 -0.1714  0.2249  0.2006
22221W        W25819   4.719  11.233   5.924  0.3814  0.0628  0.0333
22222W        W25820   6.183  11.436  13.389  0.0965  0.1350  0.0378
22223W        W25821  16.330  13.804   3.514 -0.0150  0.1019  0.0189
22224W        W25822   0.056  16.256   6.047  0.0513  0.1558  0.0717
22225W        W25823   7.799   3.155  11.290 -0.0546  0.4003  0.1417
22226W        W25824  16.232  12.299   3.230 -0.0254  0.3420  0.0257
22227W        W25825   5.375  14.279  12.472 -0.2505 -0.0571 -0.2600
22228W        W25826   6.499  15.881   4.514 -0.1837  0.1994 -0.2604
22229W        W25827   1.725  14.004  11.759  0.0375 -0.0507  0.0472
22230W        W25828  14.006   3.615   9.990 -0.1060 -0.4252  0.1527
22231W        W25829  10.875  10.803  13.499  0.1718  0.0300 -0.1327
22232W        W25830  12.488   9.096   5.317  0.1258 -0.0146 -0.0143
22233W        W25831   7.167  10.111   2.100 -0.3555 -0.2201 -0.2558
22234W        W25832   0.409   7.196   9.215  0.0233 -0.0897 -0.0411
22235W        W25833  13.823  13.299   0.050 -0.0016 -0.2897 -0.0223
22236W        W25834  10.820  12.132   4.779 -0.0151  0.2531  0.0505
22237W        W25835   0.417  13.917  11.414 -0.1520 -0.2097  0.0429
22238W        W25836   7.354   9.732  10.496  0.2213  0.0738  0.0028
22239W        W25837   1.271   6.371   7.150 -0.1964  0.3601 -0.2520
22240W        W25838   5.094  10.764   0.693 -0.1981  0.0284  0.1448
22241W        W25839  16.357   0.415   6.895 -0.2391 -0.0384 -0.0415
22242W        W25840  14.148   5.565   7.933 -0.3090 -0.0407  0.3379
22243W        W25841   5.501  13.037   6.225  0.0428 -0.1740 -0.0361
22244W        W25842   8.162  10.727   5.977  0.0419  0.0223  0.3093
22245W        W25843   0.782  11.899   2.448 -0.1351  0.1629 -0.1221
22246W        W25844  12.399   7.954   7.769 -0.1972 -0.0307  0.0524
22247W        W25845  16.027  14.385  11.189 -0.0260 -0.1367 -0.0393
22248W        W25846   7.518   3.295  11.685 -0.1111  0.0333  0.1417
22249W        W25847  15.538   9.751  14.528 -0.1935  0.1465  0.2161
22250W        W25848   9.722   0.193  10.482 -0.0981  0.0609  0.2112
22251W        W25849   8.134   1.275  15.655 -0.1326 -0.0244  0.3042
22252W        W25850   1.049   6.666   8.045 -0.1273  0.1234  0.0890
22253W        W25851   5.772  13.565   3.967 -0.1192  0.0084  0.2060
22254W        W25852   2.218   8.618   0.735  0.2948 -0.1767 -0.1887
22255W        W25853  15.363   5.263   1.322  0.2399 -0.1760  0.0494
22256W        W25854  12.205  11.702   3.153  0.0721 -0.0503  0.1042
22257W        W25855   7.436   5.801   6.550  0.2371 -0.0192 -0.2709
22258W        W25856   8.057   2.955  10.916 -0.1426  0.0025 -0.0198
22259W        W25857   2.336  15.946  11.563 -0.1652  0.1953 -0.0114
22260W        W25858   6.402   9.778   5.000  0.0038  0.3632  0.0767
22261W        W25859  14.361   0.326  15.102 -0.0124 -0.0388  0.1970
22262W        W25860  11.737   1.149   4.055 -0.0761  0.1521  0.1198
22263W        W25861   2.080   5.495   3.684  0.2539  0.0718 -0.2926
22264W        W25862  12.476   6.463  12.782 -0.0851 -0.0952  0.2218
22265W        W25863   7.552   5.915  11.838 -0.1209  0.3043 -0.2845
22266W        W25864   7.578   1.680   1.500 -0.0949  0.0977 -0.0805
22267W        W25865   6.397   2.212  11.139  0.1420 -0.0943 -0.1631
22268W        W25866  12.344   7.065   6.969  0.1271  0.0773 -0.0261
22269W        W25867   3.912   9.056   3.891  0.0645  0.1071 -0.2057
22270W        W25868   7.660   8.841   6.347 -0.1625  0.0808  0.1453
22271W        W25869  10.149  11.401   6.860  0.0579  0.6890 -0.1737
22272W        W25870   5.876   9.041   1.646  0.0411 -0.2016 -0.1108
22273W        W25871  12.955  12.348   6.072  0.0175 -0.1682  0.1552
22274W        W25872   5.243   1.717  13.466  0.0484  0.1986 -0.0403
22275W        W25873   7.198   1.385  13.168 -0.2190 -0.1031  0.0125
22276W        W25874  14.215  15.164  16.004  0.1542  0.3384 -0.1972
22277W        W25875  15.262   6.217   0.386 -0.0850 -0.0389  0.2523
22278W        W25876  10.430   3.314   8.598 -0.3548 -0.0373 -0.1331
22279W        W25877  12.707   8.635  12.277  0.1168  0.0200 -0.1770
22280W        W25878   6.763   8.972  10.105  0.2940 -0.1543  0.2937
22281W        W25879  10.401   9.790   6.538  0.0410  0.1117  0.1683
22282W        W25880   2.258  13.853  15.432 -0.3798 -0.0070 -0.2698
22283W        W25881   6.565   1.518   4.916 -0.0653  0.0244 -0.2138
22284W        W25882  13.778  14.237  16.238 -0.0451  0.0837  0.2207
22285W        W25883   9.224   5.193   0.173  0.0268  0.0816 -0.1869
22286W        W25884  11.348  12.301   8.501  0.3227  0.0972  0.2306
22287W        W25885   7.312  10.282   9.998 -0.0043 -0.5346 -0.2213
22288W        W25886   7.524   6.801  10.607 -0.0894  0.3079  0.1220
22289W        W25887   0.054   8.288   4.565  0.3744  0.0740 -0.0647
22290W        W25888   1.439   6.839  14.477  0.1302  0.3518  0.2303
22291W        W25889  10.426  15.970  11.339  0.1983  0.1876  0.1011
22292W        W25890   1.929   4.247   7.870 -0.1402 -0.3902 -0.1585
22293W        W25891  14.514   2.369  16.063 -0.0012 -0.1009  0.0873
22294W        W25892  15.996   9.142   2.000 -0.2413 -0.0602  0.1628
22295W        W25893  15.194   0.909   7.159 -0.2205 -0.1419  0.3703
22296W        W25894  15.426  11.585   3.849 -0.4370  0.1900 -0.0121
22297W        W25895  14.967   5.024   4.613  0.2520  0.0788 -0.1996
22298W        W25896  12.102   0.802   4.192 -0.3092  0.0376 -0.0590
22299W        W25897  10.239   8.837  11.696  0.3772  0.1100 -0.1460
22300W        W25898   1.830   7.128  10.271  0.0346  0.3307 -0.0185
22301W        W25899   5.472  14.847  10.812  0.0050  0.3917 -0.0885
22302W        W25900  16.282  13.989  13.147 -0.1382  0.1307  0.3007
22303W        W25901  11.758  11.957  14.273  0.4308  0.1463  0.1287
22304W        W25902   2.665   1.221   4.932 -0.2080 -0.3393 -0.3048
22305W        W25903   8.240   8.887   9.542  0.0989 -0.0479  0.1497
22306W        W25904   0.257   4.437   7.283 -0.1449 -0.3268  0.1034
22307W        W25905   3.955   9.249   4.493  0.1281 -0.2824  0.0785
22308W        W25906   1.608  12.126  14.333  0.0970 -0.2349  0.1770
22309W        W25907   8.738   9.530   6.377  0.2038  0.0574 -0.0941
22310W        W25908  15.907  14.340  13.118  0.0630  0.1902 -0.2545
22311W        W25909  14.544   4.325   9.630  0.0762  0.0854 -0.0173
22312W        W25910   5.510   9.891   9.780 -0.2918 -0.0181  0.0412
22313W        W25911  16.006   6.725   3.899  0.0317 -0.3658 -0.1508
22314W        W25912   8.113  13.863   0.559  0.3154  0.0244 -0.0503
22315W        W25913  16.144  15.173  11.706  0.2511  0.0271 -0.1632
22316W        W25914   6.183  14.235   8.415  0.2115 -0.1236 -0.1664
22317W        W25915  10.406  15.402  12.270  0.2327  0.0455 -0.3015
22318W        W25916  14.492   4.267   4.900  0.1364 -0.0698 -0.1862
22319W        W25917   4.404   0.182   6.910  0.0253  0.1189 -0.1863
22320W        W25918  16.208  13.278  10.408 -0.0992  0.1000 -0.1628
22321W        W25919   8.978  13.257   0.908 -0.1138 -0.0452  0.1905
22322W        W25920   3.010   6.028   9.081 -0.1312  0.0260 -0.1651
22323W        W25921  15.714  10.866   9.827  0.3848 -0.1527  0.0204
22324W        W25922   1.855   5.711  10.205  0.1747  0.0320 -0.3788
22325W        W25923   5.013  11.659   7.947 -0.5077 -0.0493 -0.0866
22326W        W25924   4.517   9.514  12.203 -0.0116  0.0870  0.2173
22327W        W25925   6.336   0.145   5.155  0.1087 -0.0537 -0.1843
22328W        W25926   2.912   9.216  13.277 -0.0397 -0.4019  0.0133
22329W        W25927   9.677  10.173  14.317  0.2410  0.4501 -0.0144
22330W        W25928   7.172  14.870   8.752  0.3242  0.0207  0.0385
22331W        W25929   2.837   6.582   9.255  0.1597  0.0222  0.2866
22332W        W25930   7.580  13.152  10.767  0.0547 -0.0374 -0.1992
22333W        W25931   9.208   6.618   0.305 -0.2736  0.2257 -0.0244
22334W        W25932   8.440  14.711   1.988 -0.0315  0.0989 -0.2520
22335W        W25933   7.488   6.785  11.940  0.2692 -0.4605 -0.2210
22336W        W25934   3.813   2.609   3.405 -0.2842 -0.0099 -0.0866
22337W        W25935   3.800   5.355  16.280  0.1188 -0.2269  0.2654
22338W        W25936  11.894  12.725  11.450  0.1978  0.2649  0.1961
22339W        W25937   6.262   5.509  11.914  0.0660  0.0029  0.1256
22340W        W25938   6.333   4.982   7.893  0.0263 -0.0021  0.2792
22341W        W25939  13.765   0.836  12.875  0.0721  0.0046  0.1269
22342W        W25940   0.488  14.022  15.220 -0.1578 -0.0033  0.0662
22343W        W25941  12.595  15.238  10.369  0.0606  0.3127 -0.2630
22344W        W25942   8.642   9.017  10.882  0.2023 -0.0778  0.2065
22345W        W25943  14.172   8.267  15.650 -0.2438  0.2698  0.1412
22346W        W25944  11.753  12.088   8.759  0.0400 -0.0936 -0.1106
22347W        W25945   2.305   5.092   1.297 -0.0834  0.3706  0.1794
22348W        W25946   9.882   0.449   5.695 -0.1992  0.3011  0.0170
22349W        W25947   1.492  13.574  16.212 -0.1537 -0.3878 -0.0141
22350W        W25948  14.652   5.083  10.399 -0.1114 -0.0512 -0.1836
22351W        W25949  11.511   3.440   4.631  0.2448  0.0069  0.1420
22352W        W25950   6.024   0.696   4.665  0.0277 -0.0051 -0.0215
22353W        W25951   8.551   4.775   5.105  0.4854 -0.3020  0.2185
22354W        W25952  11.503   1.889   9.870  0.2004 -0.2728 -0.2756
22355W        W25953  13.294  13.136   4.542 -0.0787  0.3179 -0.0994
22356W        W25954   1.996   5.738  13.537 -0.2666 -0.4034  0.1985
22357W        W25955   6.945  14.710   5.208  0.0473  0.0245  0.1592
22358W        W25956  13.927   6.992   4.161  0.2702 -0.0278  0.2032
22359W        W25957   7.185  13.844   0.878 -0.0043 -0.2247  0.1301
22360W        W25958  12.418   9.911   5.890 -0.0413  0.2538  0.0414
22361W        W25959  10.341  13.340   0.860  0.0805 -0.0298  0.0623
22362W        W25960   9.757   1.228   8.456  0.0056  0.0634 -0.0481
22363W        W25961  11.020   2.446   6.148 -0.2068 -0.1265 -0.1605
22364W        W25962   5.906  14.873   0.975 -0.0536  0.2114  0.0928
22365W        W25963   1.390   8.338  12.470 -0.0804  0.3759  0.0979
22366W        W25964  11.178   1.905  15.213 -0.0751  0.1997 -0.0276
22367W        W25965  11.373  16.155   7.682 -0.1558  0.1690 -0.0904
22368W        W25966   7.471  15.998  15.626 -0.4092  0.0491 -0.1073
22369W        W25967   6.475  14.784   3.254  0.1443 -0.1398 -0.0303
22370W        W25968  13.511  16.260   4.612  0.2525 -0.1831 -0.1528
22371W        W25969   6.416   8.601   6.539 -0.1624 -0.0378  0.1088
22372W        W25970  13.737   5.380   7.672 -0.1422 -0.3686  0.0989
22373W        W25971  10.196   3.807  12.908 -0.0539 -0.3901 -0.0271
22374W        W25972  15.987  14.430   5.249  0.2868 -0.1124 -0.1672
22375W        W25973   1.661   6.433  14.667  0.0391  0.1443  0.1526
22376W        W25974  14.052   4.742   1.155  0.0418 -0.3271 -0.0862
22377W        W25975   4.882  10.747  14.837  0.2795  0.1036  0.0615
22378W        W25976   7.631  14.296  13.708  0.0705  0.3292  0.0588
22379W        W25977  12.690   0.926  12.627 -0.1682 -0.3486  0.1954
22380W        W25978  14.918  14.719   8.940  0.4072  0.0150 -0.1026
22381W        W25979  13.913   4.336  15.837  0.0020 -0.1011 -0.1698
22382W        W25980   2.898  15.957  14.922 -0.0689  0.0452 -0.0100
22383W        W25981   6.020   2.450   0.455 -0.0314 -0.0594  0.2666
22384W        W25982   3.029   6.928   0.544 -0.0226 -0.0256 -0.1331
22385W        W25983   4.187   1.780  12.247  0.2992 -0.1957 -0.0945
22386W        W25984   2.777   5.301   1.020  0.0309 -0.0102 -0.1967
22387W        W25985  16.172   6.564   9.996 -0.0662 -0.1728 -0.0231
22388W        W25986  15.722   8.625  11.617  0.1258 -0.3432  0.0957
22389W        W25987   8.079   3.534  12.815 -0.1904 -0.1392 -0.0566
22390W        W25988   1.051   3.226  11.157  0.1791  0.1210  0.1849
22391W        W25989  10.890  14.949   0.801  0.3464 -0.1753 -0.1981
22392W        W25990   8.452  14.013   6.595 -0.0138 -0.1168 -0.2879
22393W        W25991  15.354   7.418   2.824 -0.1172  0.0902  0.1345
22394W        W25992  11.566  13.655   9.121 -0.1079  0.0412 -0.0237
22395W        W25993  16.002   4.815   7.406  0.2158  0.0085 -0.2106
22396W        W25994  13.497  11.821   5.170  0.1417  0.0096  0.3241
22397W        W25995   3.354   0.144   2.253  0.1825 -0.0998 -0.1617
22398W        W25996   9.053   9.178   9.357  0.0922  0.0696  0.0780
22399W        W25997   9.278  13.112  13.579  0.1485 -0.0427  0.0473
22400W        W25998   6.353   3.135  13.468 -0.1353 -0.1384 -0.1052
22401W        W25999  13.454  11.176   6.814  0.0409 -0.2186  0.0792
22402W        W26000   9.323   3.653   2.515  0.1920 -0.1321  0.1884
22403W        W26001  16.006   6.416  15.204  0.0679 -0.1898 -0.0449
22404W        W26002  12.816   3.818   5.573 -0.1507  0.1223  0.0914
22405W        W26003  12.627   1.006   6.825  0.0544 -0.0785  0.1736
22406W        W26004   3.562  13.542  14.728  0.0271 -0.1755 -0.1667
22407W        W26005  10.706   6.314  10.522  0.4915  0.0329  0.1541
22408W        W26006   9.558  11.013   4.672 -0.1161  0.1988 -0.1068
22409W        W26007  14.886   5.593  14.625  0.3941 -0.0680 -0.1277
22410W        W26008  10.867  12.239   1.774 -0.1865  0.1903 -0.1930
22411W        W26009  11.267   5.222   5.590 -0.5047 -0.0301  0.0866
22412W        W26010  14.231  12.036  11.657 -0.0713 -0.1593 -0.4146
22413W        W26011   3.942   8.946   5.827  0.2245 -0.0172  0.0385
22414W        W26012   6.337   7.170  11.655  0.2553  0.1723 -0.2518
22415W        W26013  11.660  16.317  12.409  0.0519 -0.0321 -0.0213
22416W        W26014  13.067   2.611   7.094  0.1948 -0.0627  0.4095
22417W        W26015   8.962   1.750  14.738  0.2607  0.1480 -0.1085
22418W        W26016   0.960   8.122  12.379  0.0653  0.1420  0.0037
22419W        W26017   1.800  11.446  13.307 -0.0166 -0.1124 -0.2717
22420W        W26018   8.371   1.814   0.871  0.1706 -0.0132 -0.0101
22421W        W26019   1.854   9.118   7.963  0.0958 -0.1187  0.1783
22422W        W26020   7.377  14.448  14.728 -0.2812 -0.0192  0.0551
22423W        W26021   5.971  10.086  12.781  0.0713 -0.1205  0.1482
22424W        W26022   5.700   6.604   9.332 -0.0081 -0.1372  0.2495
22425W        W26023  10.599   7.461   1.966  0.3894  0.1769 -0.0172
22426W        W26024   6.430   7.024   9.547  0.0697  0.0675 -0.3304
22427W        W26025  15.423   3.068   6.630  0.0597 -0.0992  0.1033
22428W        W26026   9.756   7.341   0.795  0.4622  0.0457  0.0764
22429W        W26027  10.177  12.811  11.283  0.3208  0.1163  0.0292
22430W        W26028  13.393  10.234   7.295 -0.2471 -0.0890  0.1658
22431W        W26029   6.138   7.594   7.917  0.2091 -0.1204  0.1730
22432W        W26030   9.527   1.246  16.055 -0.2860  0.2089 -0.2218
22433W        W26031  13.939   7.000   8.515 -0.2899  0.0025 -0.3145
22434W        W26032   6.055   3.499  11.080  0.0649  0.1390  0.0568
22435W        W26033  10.854  11.440  15.360 -0.2349 -0.1607  0.0034
22436W        W26034  13.721  14.058   2.742 -0.0758 -0.0170 -0.0025
22437W        W26035   2.500   9.600   9.497 -0.1181  0.0119 -0.2609
22438W        W26036   3.848   3.935  13.386  0.2103  0.1908  0.2871
22439W        W26037   5.312   8.579   2.765  0.0985 -0.0870  0.0406
22440W        W26038   9.878   8.595  15.803 -0.0248  0.1311 -0.0147
22441W        W26039  12.691   8.834   9.946 -0.1379 -0.1114  0.0715
22442W        W26040  13.743   3.973  15.002  0.0933 -0.1132 -0.2163
22443W        W26041   9.191   0.258   9.753 -0.0614  0.0680  0.0293
22444W        W26042  10.804  10.692   5.079  0.1096  0.2204 -0.0546
22445W        W26043  12.653   0.574   1.098  0.0774 -0.1073  0.0352
22446W        W26044  14.293  10.775   8.806  0.0543  0.1786  0.0837
22447W        W26045  15.019   3.544   9.301  0.2354 -0.1203 -0.1331
22448W        W26046   5.279   5.542  15.036  0.1438 -0.2225 -0.0332
22449W        W26047   6.613  15.786   5.586  0.1866 -0.1041 -0.1852
22450W        W26048   3.619  13.081   0.914 -0.0578 -0.1339 -0.0408
22451W        W26049  14.978  11.720  13.040 -0.3885 -0.2060  0.3087
22452W        W26050   5.157  11.972   8.800  0.1493  0.0505 -0.0080
22453W        W26051   3.487   0.422  14.034  0.0609 -0.1163 -0.0279
22454W        W26052   0.614   8.725   2.766  0.1333 -0.1609 -0.1063
22455W        W26053   7.372   1.876   7.458  0.2876 -0.0664 -0.0152
22456W        W26054   8.865   4.485   5.519  0.0654  0.0277  0.0220
22457W        W26055   2.529  11.123   7.421 -0.1027 -0.3338 -0.0916
22458W        W26056  15.078  15.803   3.021  0.1443 -0.1192 -0.0312
22459W        W26057   9.976   6.333   3.587  0.1324  0.1054  0.0628
22460W        W26058  14.166   9.224   4.115 -0.0271 -0.1266 -0.2349
22461W        W26059   2.424  13.184   0.312 -0.0348  0.2056  0.2803
22462W        W26060   1.878   0.340   1.186  0.2166  0.0133  0.3069
22463W        W26061   5.856   7.093   4.279  0.0590  0.2306  0.2888
22464W        W26062  12.530  14.903   6.827  0.2954  0.2716 -0.0704
22465W        W26063  11.034   9.342  14.015 -0.0240 -0.0793  0.2568
22466W        W26064   1.713  14.395   2.956 -0.0659 -0.2547  0.0329
22467W        W26065   6.588   5.435  15.783 -0.1146  0.2641 -0.0007
22468W        W26066   2.512  12.395   0.028  0.0672  0.0400  0.1134
22469W        W26067  14.777   8.124   4.630  0.2200 -0.0520 -0.0966
22470W        W26068  12.672  15.961   4.423  0.0176 -0.0030 -0.2639
22471W        W26069  10.057  12.566  15.149 -0.0740 -0.2444 -0.1974
22472W        W26070   2.095   2.895   1.270  0.0430 -0.3984  0.0739
22473W        W26071   4.064   2.947   8.364 -0.1630 -0.0178  0.0070
22474W        W26072  10.252   1.006   9.384  0.0586  0.0805 -0.1419
22475W        W26073  16.019  14.994   1.021 -0.0700  0.0150  0.1137
22476W        W26074   0.233   4.165   0.591  0.3837 -0.0227  0.1322
22477W        W26075  12.463   1.064   1.674 -0.4318  0.2387  0.0938
22478W        W26076   9.967   2.938   8.006  0.0878 -0.1721 -0.2210
22479W        W26077   2.838  14.845  13.645  0.1268  0.0312 -0.1589
22480W        W26078   9.660   1.350  11.866  0.0021  0.1200 -0.1823
22481W        W26079  11.757  15.858   2.612 -0.2434  0.1944  0.0990
22482W        W26080  16.199   6.745   5.475 -0.0924 -0.1500  0.3524
22483W        W26081  13.480  12.266  10.028 -0.1378  0.3016 -0.1266
22484W        W26082   2.064   3.619   4.205 -0.1728  0.0286  0.1823
22485W        W26083  13.256  13.838  14.549 -0.0158 -0.2559  0.0400
22486W        W26084   3.791   6.413   1.446 -0.0803 -0.0457  0.2419
22487W        W26085   1.940   4.574   8.372 -0.0705 -0.0557  0.0308
22488W        W26086   2.736   5.031  13.800 -0.0902 -0.1777  0.1070
22489W        W26087  11.403   4.425  11.697 -0.4116 -0.0608  0.2068
22490W        W26088   8.861   6.480  11.932  0.0284 -0.1633  0.3945
22491W        W26089   4.230  15.972   9.088  0.2034  0.1282 -0.0854
22492W        W26090  15.019  14.554   4.572 -0.0328 -0.3260  0.0633
22493W        W26091  10.737  12.902   5.317 -0.2793 -0.0564 -0.2330
22494W        W26092   4.644   5.513   1.812 -0.0539  0.0571 -0.1089
22495W        W26093  12.174   7.525   6.056  0.0657  0.1844 -0.0931
22496W        W26094  14.368   6.356   6.491  0.2365  0.1435  0.0529
22497W        W26095   8.968  13.919   3.784 -0.0510 -0.0670 -0.3064
22498W        W26096  15.441   1.284   3.246  0.0845 -0.1485 -0.1958
22499W        W26097   7.174  15.970  12.430  0.3376  0.3853 -0.2506
22500W        W26098  15.852   3.532   6.085 -0.0176 -0.0847  0.0310
22501W        W26099  11.244  12.875  12.684  0.1865  0.1868 -0.1303
22502W        W26100   4.977  13.571  14.600  0.0263 -0.0222 -0.1113
22503W        W26101  13.650   8.836  11.956 -0.4115  0.0363  0.3860
22504W        W26102  14.691   3.199   9.199 -0.3519 -0.1408  0.0422
22505W        W26103  12.825   3.192   1.245  0.3149 -0.2199 -0.0414
22506W        W26104   2.207   4.364   3.347 -0.0195 -0.0894  0.1285
22507W        W26105  15.467  10.903   5.377 -0.3190 -0.2731  0.0546
22508W        W26106   4.172   8.755   7.327 -0.0409  0.0394 -0.0362
22509W        W26107  12.838   4.805  10.563 -0.1038 -0.0635 -0.1071
22510W        W26108   5.633   1.065  14.104  0.0972  0.2827 -0.1739
22511W        W26109   2.913   2.809  14.872 -0.1644  0.3221 -0.1636
22512W        W26110   8.951   1.736  16.154  0.3854 -0.1694 -0.0396
22513W        W26111   6.076   6.478  14.608  0.0292  0.0478  0.1629
22514W        W26112   5.480   7.594   9.094  0.1791 -0.1211 -0.0574
22515W        W26113   4.062   4.294   7.683 -0.1148  0.1237 -0.3775
22516W        W26114   5.910  14.743   2.028  0.0967 -0.1298 -0.4570
22517W        W26115   1.073   2.652   7.056  0.0190  0.1499  0.0630
22518W        W26116   4.208   2.085   2.780 -0.1853 -0.2349  0.2190
22519W        W26117   7.668  12.373  13.244  0.0521  0.1335  0.1408
22520W        W26118  10.827   6.489   2.647 -0.1232  0.0197  0.0750
22521W        W26119   9.954   6.874   7.983 -0.2016  0.1041 -0.1796
22522W        W26120   2.818   3.003   5.239  0.2589 -0.1778 -0.3239
22523W        W26121   7.506  11.529  14.282 -0.2319  0.1543  0.1628
22524W        W26122  10.981  13.110   1.379  0.0940 -0.0406  0.0938
22525W        W26123   6.944  14.278   1.148 -0.2450  0.0510 -0.0184
22526W        W26124  12.747  13.333   5.383  0.2075  0.0035 -0.2475
22527W        W26125   2.288   0.901   2.724 -0.2606  0.2717 -0.1210
22528W        W26126  12.062  13.305   7.996  0.0651 -0.2829  0.0621
22529W        W26127   2.463   4.678   5.363 -0.3057  0.0827 -0.0531
22530W        W26128   3.000   6.882   1.984 -0.2050  0.0287  0.1800
22531W        W26129   1.057   6.870  15.948 -0.0183  0.0583  0.1515
22532W        W26130   1.775   2.758  16.267 -0.2663  0.3110  0.4010
22533W        W26131  15.685   7.678   4.396  0.0619 -0.3935  0.3598
22534W        W26132   1.424  13.833  11.221 -0.0635  0.0783 -0.0450
22535W        W26133   1.380  15.746  14.553  0.0902 -0.0803 -0.0455
22536W        W26134   1.065   2.058   6.069 -0.0005 -0.0253 -0.1020
22537W        W26135  14.896  13.175   1.268 -0.2902 -0.0413  0.1529
22538W        W26136  14.353   7.786   1.998  0.0028  0.2181 -0.3662
22539W        W26137  10.625  11.825  13.812  0.0556  0.0789 -0.2641
22540W        W26138  16.345  13.219   6.531 -0.1907  0.2215  0.0238
22541W        W26139   2.222   6.153  13.216 -0.0042  0.3408 -0.0067
22542W        W26140  10.834   1.600   0.220  0.1869  0.3426 -0.2455
22543W        W26141   6.207   8.750   0.404 -0.0674 -0.0059  0.0336
22544W        W26142  12.370   5.084  11.168 -0.4106  0.4000  0.0939
22545W        W26143   9.909   6.196  10.094 -0.3628  0.2651 -0.1797
22546W        W26144  10.209   1.765   5.444  0.2753  0.3617  0.4575
22547W        W26145   6.010  10.651   7.244  0.0395 -0.1462 -0.2931
22548W        W26146  11.658   5.054  14.544  0.1189  0.2219  0.1810
22549W        W26147  14.023   7.185   8.950 -0.0807  0.1248  0.1554
22550W        W26148   7.169   4.161  16.277 -0.0234  0.0392  0.1044
22551W        W26149   2.129  13.992   9.941 -0.2458  0.0639 -0.1313
22552W        W26150   9.898   9.191   0.072 -0.2733  0.0546  0.2138
22553W        W26151  11.479   0.534  15.353 -0.0209 -0.2725  0.2478
22554W        W26152   1.887   6.068  14.272 -0.1479 -0.2953  0.2068
22555W        W26153   1.176   8.207   2.161 -0.1238 -0.0074 -0.2513
22556W        W26154   1.478   4.808   1.645  0.2711  0.0568  0.3983
22557W        W26155  13.862   2.682  11.094 -0.0217 -0.0088 -0.0784
22558W        W26156   6.839  13.871  13.643 -0.2048  0.2443 -0.2883
22559W        W26157   5.474  15.836   0.972  0.1185  0.3418 -0.1331
22560W        W26158  16.245  11.959   0.972  0.3078  0.2224 -0.0903
22561W        W26159   5.002  16.101  10.228 -0.1110 -0.0498 -0.3512
22562W        W26160  13.233   8.168   4.817  0.0862 -0.0181  0.1285
22563W        W26161  12.564   9.026   3.229 -0.1721 -0.0587  0.1471
22564W        W26162  10.209  11.255  15.217 -0.0553  0.1596 -0.1344
22565W        W26163   3.087   3.827  10.722  0.0477  0.0537 -0.3224
22566W        W26164   9.506   3.471  15.403 -0.3581 -0.1570 -0.0600
22567W        W26165   2.397   5.642   5.749 -0.1083 -0.1478 -0.1562
22568W        W26166  13.585  15.985   9.721 -0.0983  0.0286  0.2346
22569W        W26167   8.632   3.103  14.409  0.0443 -0.1411  0.1857
22570W        W26168  14.525  12.569   2.656  0.1396 -0.1370 -0.0262
22571W        W26169  14.385  14.217   3.441  0.1978 -0.0228 -0.1882
22572W        W26170  10.210  13.310   4.541  0.0924  0.0000  0.0324
22573W        W26171   0.938   1.254   8.161  0.0725 -0.1026  0.1151
22574W        W26172  11.419  12.927  12.184 -0.2599  0.3547 -0.0877
22575W        W26173  16.274   1.228   4.665 -0.0109  0.1051 -0.3021
22576W        W26174   1.582   6.279   9.910 -0.1127  0.1167 -0.0283
22577W        W26175   9.359  12.960  14.059  0.2005  0.3086 -0.1185
22578W        W26176  10.578  12.491   5.087  0.1473 -0.2242  0.1701
22579W        W26177  15.391  12.673   7.867 -0.0471 -0.4231 -0.0802
22580W        W26178   8.387   1.134   5.266  0.0042 -0.2882 -0.2857
22581W        W26179  16.096   7.929   4.729 -0.1187 -0.0770  0.0469
22582W        W26180   9.824  15.843  10.740 -0.2856 -0.0461  0.1753
22583W        W26181   5.081   5.589   6.933  0.0884  0.0882  0.4177
22584W        W26182  12.450  12.764  14.157  0.1442 -0.0898  0.2977
22585W        W26183   3.072   9.455   0.557  0.0085  0.2141  0.2097
22586W        W26184   7.606   3.468  12.975 -0.1736  0.0584 -0.2137
22587W        W26185   5.705  11.330   3.169 -0.0530  0.0346 -0.1960
22588W        W26186   5.581  10.133   5.788 -0.1270 -0.0897 -0.2273
22589W        W26187   3.278   8.064  15.275  0.2787 -0.0280  0.0444
22590W        W26188   1.690  14.220   1.736  0.1915  0.0194 -0.0551
22591W        W26189   4.536   2.455   4.085  0.4090 -0.3445  0.0677
22592W        W26190  16.215   5.976  14.356  0.3548 -0.0129 -0.1390
22593W        W26191  12.171  12.137   7.951  0.1215  0.2093  0.2683
22594W        W26192  11.236  15.410   7.893  0.1963 -0.1274  0.0888
22595W        W26193   2.576  15.635  10.910  0.0587  0.0812  0.0798
22596W        W26194   9.838  14.744  15.102 -0.3207  0.1138  0.1512
22597W        W26195   4.296   1.226   5.487 -0.0978 -0.4287  0.1593
22598W        W26196   6.634   2.963   5.928 -0.3619 -0.2614 -0.0781
22599W        W26197   7.245  16.342   3.059  0.2180 -0.2671 -0.0498
22600W        W26198  11.914   2.290  10.629  0.2187 -0.2155  0.2130
22601W        W26199  10.574   6.263  14.073  0.4021  0.0406  0.2141
22602W        W26200   7.940  12.208  16.211  0.1300 -0.2438  0.0611
22603W        W26201   3.466   6.111  14.521  0.0543 -0.2004  0.0019
22604W        W26202   2.556  11.762  11.890  0.0090  0.0583 -0.0079
22605W        W26203   3.548  15.829   6.994  0.0091 -0.2338  0.1093
22606W        W26204   6.144  13.888   3.923 -0.0805  0.5606 -0.1287
22607W        W26205  11.246   4.092   2.418  0.1425  0.1136 -0.3608
22608W        W26206  15.018   1.105   8.458 -0.0376  0.1539 -0.5894
22609W        W26207   4.028  10.686  15.810  0.0828 -0.0330  0.2655
22610W        W26208   3.190   4.662   9.593 -0.0537  0.2633  0.6114
22611W        W26209  10.864   9.120   7.512  0.3095 -0.0838  0.3224
22612W        W26210  16.349   1.543   4.318 -0.0016  0.1104 -0.0987
22613W        W26211   3.524   1.545  10.463 -0.2838  0.0580 -0.0467
22614W        W26212   9.375   1.597   6.119  0.2887  0.1939 -0.3418
22615W        W26213  14.670  12.445   6.103  0.1002 -0.1455  0.0014
22616W        W26214   0.494   9.993   1.889 -0.1423 -0.1722 -0.1210
22617W        W26215  13.329  15.066   1.575 -0.0122  0.1679  0.1615
22618W        W26216  13.794   2.924   1.215  0.2666  0.3760  0.1585
22619W        W26217   9.544   1.828   7.101  0.0670 -0.1763 -0.0408
22620W        W26218  15.053  14.019   3.557 -0.0158 -0.0234 -0.0747
22621W        W26219   1.468   3.287   3.538 -0.0169 -0.3606 -0.3183
22622W        W26220  12.680   9.528  13.271  0.0568 -0.2212 -0.1815
22623W        W26221   6.478   6.885   8.434 -0.0124 -0.2799  0.1965
22624W        W26222   4.471   4.372   9.086 -0.0242  0.1596  0.1030
22625W        W26223   7.227   5.024   8.117  0.0951  0.0286  0.1165
22626W        W26224   7.608  11.221   6.462 -0.0863  0.0210 -0.2660
22627W        W26225  14.405   3.823  12.746 -0.0369  0.1061 -0.2082
22628W        W26226   3.156  10.516   3.779  0.0094 -0.1509  0.2712
22629W        W26227  14.999   3.217  13.865 -0.1740 -0.2825 -0.2081
22630W        W26228   0.285   3.329   2.204  0.3111 -0.0268  0.1533
22631W        W26229   8.475   6.817  13.768 -0.1379  0.0280  0.1736
22632W        W26230   4.114  15.442  15.417  0.1818 -0.2763 -0.2953
22633W        W26231   2.700   4.067  15.205 -0.1618 -0.1572 -0.1834
22634W        W26232   9.564  13.433  11.839 -0.0419 -0.0187  0.0013
22635W        W26233   5.491   2.125  10.859 -0.0895  0.0611  0.2125
22636W        W26234  12.082  10.415   1.845  0.2216 -0.2059 -0.1427
22637W        W26235   8.025  13.970  12.880 -0.0543 -0.4717 -0.0660
22638W        W26236  14.998   9.436  13.212 -0.2193  0.2064 -0.0988
22639W        W26237   9.471   9.171   5.248 -0.1695 -0.0245  0.0981
22640W        W26238  10.760   0.998  11.263  0.1874 -0.2398  0.0998
22641W        W26239  14.549   3.236   7.714  0.0704  0.1876  0.0136
22642W        W26240  10.354   0.683   1.278  0.0748 -0.1108 -0.2659
22643W        W26241  16.335   1.389   2.226 -0.2252 -0.1333 -0.0301
22644W        W26242   3.809  14.130   2.210 -0.3221 -0.5027 -0.2312
22645W        W26243  12.516   4.039   2.878 -0.0629 -0.0817 -0.2331
22646W        W26244   6.924   9.765  13.108  0.0271 -0.2476 -0.0840
22647W        W26245   6.932   6.128  11.465  0.0292 -0.0664 -0.0177
22648W        W26246   7.498  11.828   7.077  0.1838  0.0234  0.1323
22649W        W26247  12.135   4.801   1.515 -0.1719 -0.2927 -0.1922
22650W        W26248   4.265   5.389   2.626 -0.0377 -0.1530 -0.0729
22651W        W26249   7.283  12.301  14.179  0.0289  0.2909 -0.1245
22652W        W26250   8.090  11.824  12.664  0.0820  0.3687 -0.0307
22653W        W26251   6.816   3.404  12.086 -0.2822  0.2013 -0.1727
22654W        W26252  14.109   5.076  12.331  0.0716 -0.2027 -0.3080
22655W        W26253   9.308   4.793   3.853  0.1744 -0.0630 -0.2446
22656W        W26254   9.762  13.250  14.514 -0.0290 -0.0843 -0.1251
22657W        W26255   5.317   5.784   8.845  0.2160 -0.3022  0.2682
22658W        W26256   7.957   5.377  13.130  0.1751  0.0364 -0.3463
22659W        W26257   2.146  14.293  14.159  0.0876 -0.6310  0.4048
22660W        W26258  16.012   4.510   3.652 -0.1323 -0.0498  0.0863
22661W        W26259  15.978  12.229   6.649  0.4164  0.0483  0.2363
22662W        W26260   7.476   8.987  10.679  0.0309 -0.1524 -0.0033
22663W        W26261   0.898   0.966  16.064 -0.0926  0.0138  0.1370
22664W        W26262   5.080   7.556  13.250  0.1583 -0.1840  0.2004
22665W        W26263  12.920  14.951  11.566  0.1905  0.0590  0.0427
22666W        W26264   9.055   7.270  11.462  0.0940  0.1889 -0.1280
22667W        W26265  12.380   2.737   1.249  0.0028  0.0542  0.1006
22668W        W26266   1.912   0.961  13.335 -0.3449  0.0133 -0.0771
22669W        W26267   3.803  14.784   1.247 -0.0930 -0.0252 -0.0389
22670W        W26268  14.642  10.292  13.332 -0.0559  0.0103  0.0911
22671W        W26269  15.514  10.651   6.807  0.1288  0.2607  0.1881
22672W        W26270   8.081   1.612   8.448 -0.0779  0.0455  0.1460
22673W        W26271   0.204   5.377   0.632  0.1166 -0.3664  0.1251
22674W        W26272   7.928  11.282  14.317 -0.0630 -0.1316 -0.0369
22675W        W26273   8.493  15.719   0.583 -0.0809 -0.1206 -0.3077
22676W        W26274   2.603   3.968   8.660 -0.0480 -0.2246  0.0318
22677W        W26275   9.983  10.755   7.710 -0.2073 -0.1624 -0.0987
22678W        W26276   6.090   1.470   7.175  0.1955  0.2621 -0.0705
22679W        W26277   5.464   0.442  11.150  0.2561  0.1267  0.3813
22680W        W26278  11.993   6.255  15.418  0.0446  0.2494  0.1713
22681W        W26279  10.278   3.034  14.951 -0.1395  0.2323  0.0607
22682W        W26280   0.792   1.616  14.809 -0.1522 -0.1016 -0.2047
22683W        W26281  13.581  13.586   7.751  0.0233  0.2062 -0.4017
22684W        W26282   0.890   6.097  14.677 -0.0037 -0.1816 -0.1142
22685W        W26283  14.290  10.408  15.073 -0.1507 -0.0531  0.0911
22686W        W26284   2.796  14.980   1.424 -0.1926  0.3016 -0.1663
22687W        W26285  13.189   6.010  13.941 -0.1444  0.2942 -0.2367
22688W        W26286   5.054   2.284   6.319 -0.0683  0.1956 -0.0467
22689W        W26287  13.063  14.462  15.060  0.3446 -0.3433  0.1545
22690W        W26288   1.033  10.637   9.203  0.0475 -0.3096  0.2947
22691W        W26289   2.234   5.972  14.615 -0.2542 -0.4635  0.2490
22692W        W26290   5.091  10.028   5.650 -0.2736  0.1837  0.3354
22693W        W26291  14.591   7.671   4.561 -0.2867  0.0761 -0.1418
22694W        W26292  11.257  11.704   4.801 -0.0189 -0.1244 -0.0148
22695W        W26293  12.265   6.079  13.098 -0.1455 -0.0957  0.2153
22696W        W26294   7.404   3.681   9.337 -0.2200  0.0424 -0.3163
22697W        W26295  11.900   9.970  11.161  0.2187 -0.1295 -0.1617
22698W        W26296   3.754   6.034  11.170  0.1474  0.0380  0.0909
22699W        W26297  15.519   2.211  11.276  0.0054  0.0396 -0.0304
22700W        W26298  13.685   4.881   6.438 -0.0972  0.1679 -0.2126
22701W        W26299   4.934   3.376   4.545  0.1976 -0.1123  0.0239
22702W        W26300   9.491   6.255   3.466  0.0705 -0.1397 -0.2281
22703W        W26301  14.843   5.537  13.529 -0.0378  0.1404 -0.2564
22704W        W26302  11.615   4.886   7.272 -0.1580 -0.2404 -0.0464
22705W        W26303   2.279  14.570   7.270 -0.1750 -0.1713  0.0059
22706W        W26304   7.054  12.377   5.827 -0.1610 -0.1206 -0.1495
22707W        W26305   9.672  14.804  10.560 -0.0410 -0.3276 -0.0956
22708W        W26306  16.200   5.914  16.032 -0.0601  0.0801 -0.2432
22709W        W26307   7.243   8.955   9.994 -0.4192  0.2105 -0.1260
22710W        W26308  13.329   0.543  15.442 -0.0007 -0.1830  0.1311
22711W        W26309   4.074   8.240   1.523 -0.1015  0.0434  0.0557
22712W        W26310  13.620   5.161  12.219 -0.0628  0.0401 -0.0781
22713W        W26311   2.711   5.345   1.568  0.2327 -0.1369 -0.3003
22714W        W26312  11.046  14.173  13.023  0.1540  0.1701  0.0424
22715W        W26313  14.827   1.233   5.322  0.3060 -0.0091  0.1251
22716W        W26314   9.121   1.422  14.354  0.2889 -0.4442  0.3778
22717W        W26315  12.780   9.225   4.360  0.0581 -0.0604  0.1210
22718W        W26316   2.619  10.921   6.242  0.1396 -0.1162 -0.1272
22719W        W26317   2.813  14.269   2.912 -0.1196  0.1638 -0.1219
22720W        W26318   0.057   4.226  12.223 -0.0444  0.0033 -0.0746
22721W        W26319   7.235  14.165   9.390 -0.2019  0.1806  0.3965
22722W        W26320  12.128  14.294  13.337  0.1696  0.2625  0.3489
22723W        W26321   7.760  15.697   1.848  0.2438 -0.0982 -0.5025
22724W        W26322  10.335  10.752  12.324 -0.1000  0.0252 -0.0448
22725W        W26323   2.505   4.230   5.927  0.2285  0.0027 -0.3786
22726W        W26324  15.205   4.671   3.849  0.1752 -0.1327  0.1299
22727W        W26325   6.082   8.934   2.924  0.1970 -0.0921 -0.0723
22728W        W26326   0.544   6.955   8.199 -0.0030  0.1710 -0.1105
22729W        W26327  12.864  10.860   2.385  0.1952 -0.0712 -0.1520
22730W        W26328   0.781   4.769   4.437  0.0285  0.2503 -0.2186
22731W        W26329  14.689  11.750   1.745  0.0915  0.0105  0.1208
22732W        W26330   2.413   4.752   8.308  0.1559 -0.1188 -0.0224
22733W        W26331   2.012  15.541  15.953  0.0416  0.3522  0.1788
22734W        W26332  12.118  14.079   3.278  0.0184 -0.0308 -0.0165
22735W        W26333   4.475  14.784   0.812 -0.3139 -0.0159  0.0067
22736W        W26334  11.520   2.672   6.011 -0.0654 -0.0493 -0.1912
22737W        W26335   2.629   6.891  15.920 -0.1770 -0.1231 -0.0916
22738W        W26336   7.004   1.338   9.102  0.1360  0.0342 -0.0347
22739W        W26337   4.980   5.943   6.027 -0.1355 -0.1873  0.0075
22740W        W26338   1.790   7.293   5.622  0.1404 -0.2414  0.2378
22741W        W26339   1.493   9.769   7.730  0.2955  0.2823  0.1227
22742W        W26340   3.325   2.736  16.166  0.1598  0.1287  0.1945
22743W        W26341   6.119  10.048   9.937 -0.1317 -0.1521  0.2100
22744W        W26342   9.335  16.178   3.940 -0.0248  0.0806 -0.3541
22745W        W26343  10.286   4.736  12.114  0.0453  0.2500 -0.1638
22746W        W26344   9.130  15.019  10.254 -0.0285  0.2877  0.0635
22747W        W26345   6.030   2.709  10.267  0.1511 -0.2843  0.0189
22748W        W26346  11.282   3.316  11.524  0.1179  0.0993  0.2626
22749W        W26347  15.288   6.949  13.980 -0.0890 -0.2790  0.3407
22750W        W26348   9.720  16.229  14.321  0.2406 -0.0839  0.2861
22751W        W26349   9.876  13.082   6.329  0.0177  0.3123 -0.0105
22752W        W26350  16.031   6.562   4.674  0.0975 -0.1637  0.0180
22753W        W26351   9.654   6.181   2.693 -0.1099 -0.3140 -0.1675
22754W        W26352  14.986   5.586   8.633  0.0659 -0.0910 -0.1307
22755W        W26353   0.690   9.489   5.228  0.1685 -0.1956  0.1328
22756W        W26354   4.949  10.991  13.073  0.0156  0.1577 -0.4048
22757W        W26355   4.557   8.336   6.143 -0.1023 -0.1201  0.2248
22758W        W26356  10.757  13.408  10.072  0.3604 -0.0165 -0.3919
22759W        W26357  11.470   7.278   3.356  0.0599  0.2947 -0.0213
22760W        W26358  15.870   6.542  10.429  0.0408  0.2297 -0.1099
22761W        W26359   0.276   2.685   1.876  0.0895  0.0905  0.1121
22762W        W26360  14.581  14.714   4.849 -0.0598 -0.2668  0.1413
22763W        W26361   1.327  12.774   4.085 -0.2349 -0.2510  0.1244
22764W        W26362   2.001  16.287   1.015  0.0849 -0.0357 -0.0675
22765W        W26363   0.234   8.556   4.094  0.0625  0.1733  0.1255
22766W        W26364   8.914  12.285   0.035  0.2571 -0.3091 -0.1134
22767W        W26365  14.029   5.830   5.042  0.0716  0.1762  0.0701
22768W        W26366   0.026  14.463  12.963  0.0912 -0.0012  0.2700
22769W        W26367  14.483  12.240   6.484 -0.1661  0.2063 -0.1174
22770W        W26368   2.283  12.487   3.495  0.3018  0.0682 -0.0843
22771W        W26369  13.886   6.231   7.995  0.3348 -0.1373  0.2732
22772W        W26370  14.279  11.800   0.849  0.2643  0.0738 -0.0773
22773W        W26371   9.712  13.286  13.648  0.0405 -0.1259 -0.3422
22774W        W26372  11.203   3.916   0.290 -0.1328 -0.1059 -0.2704
22775W        W26373   5.093   7.068   7.490 -0.1470  0.0125 -0.1019
22776W        W26374   4.535  14.405  10.895 -0.2185 -0.0958  0.0695
22777W        W26375  11.785  12.196   5.577 -0.0161 -0.0707 -0.1221
22778W        W26376   2.517  11.022   5.592 -0.0979 -0.0827  0.2173
22779W        W26377   6.976   8.674  12.492  0.2291 -0.0725 -0.1679
22780W        W26378   4.388   1.584   0.509  0.1517  0.0974  0.0888
22781W        W26379  14.704   6.201  13.989 -0.0426  0.3584  0.0979
22782W        W26380  15.425  11.706  12.801  0.1336  0.0124 -0.4197
22783W        W26381   0.189  15.762  13.228  0.1141 -0.5702 -0.0313
22784W        W26382   1.061   1.117   1.332  0.0134  0.3073  0.3084
22785W        W26383  11.651   1.689   2.393 -0.1706 -0.2272 -0.3878
22786W        W26384  15.584   3.952   3.091  0.0042  0.0921  0.1300
22787W        W26385   4.187  10.561   5.447 -0.2185 -0.0488  0.1494
22788W        W26386  13.178   7.384   3.764  0.1989 -0.2396 -0.0098
22789W        W26387   0.264  11.260  13.915 -0.3211 -0.0734 -0.3074
22790W        W26388  11.792   8.328   0.038  0.2639 -0.2969 -0.2098
22791W        W26389  13.884   3.177   0.143  0.2940 -0.1824 -0.0538
22792W        W26390   1.271  13.723   1.028  0.1244 -0.0492 -0.0601
22793W        W26391   6.039  13.729   6.661 -0.1779 -0.0339 -0.0500
22794W        W26392   7.939   5.741   3.923 -0.0463 -0.0043  0.1023
22795W        W26393   6.103  12.813   4.291 -0.0741 -0.0543 -0.1971
22796W        W26394   3.675   2.691   8.520  0.0010  0.1045 -0.1189
22797W        W26395  10.986   6.058  14.585  0.0215  0.1354 -0.0632
22798W        W26396   9.228  10.034  14.793 -0.3635  0.0951  0.2522
22799W        W26397   3.377   8.287   7.754 -0.1602 -0.0781  0.1428
22800W        W26398   4.800  15.799   0.662 -0.1368 -0.0445 -0.1314
22801W        W26399   5.957   0.537   7.661 -0.2055 -0.2904  0.1160
22802W        W26400   8.479   3.303   5.340 -0.0390 -0.0300 -0.1039
22803W        W26401   9.741   8.855   6.524 -0.0403  0.0734  0.1590
22804W        W26402  11.611  13.859   8.689 -0.0629 -0.3576 -0.0490
22805W        W26403   3.973   3.376   1.725 -0.1499 -0.2367  0.2591
22806W        W26404   2.741   6.190   2.980  0.0321  0.2497 -0.0124
22807W        W26405   1.757  15.996   5.512  0.1743  0.0728 -0.0314
22808W        W26406   6.801   1.756   0.714  0.1613  0.0260 -0.2794
22809W        W26407   6.986   1.805   2.531  0.2447 -0.0933  0.1436
22810W        W26408   6.461   1.600  15.700  0.0233  0.1163 -0.1873
22811W        W26409   5.742  11.971   4.539 -0.3590 -0.0801  0.0127
22812W        W26410   8.474  14.864   0.655  0.1138 -0.1080  0.0275
22813W        W26411   7.036   0.403   9.725 -0.3609  0.0420 -0.2081
22814W        W26412   4.169   5.051   5.162 -0.0327  0.1311  0.1064
22815W        W26413   7.951   8.013   2.967 -0.2211 -0.1055 -0.2021
22816W        W26414  14.991  14.422  12.819  0.0322 -0.1754 -0.1808
22817W        W26415   4.847  13.082   3.909  0.0280  0.1510  0.1212
22818W        W26416   3.549   9.428   7.699 -0.0330 -0.1993  0.0850
22819W        W26417   6.387  14.894  12.214  0.0228  0.0147 -0.1337
22820W        W26418   5.827  15.883  11.102  0.0020 -0.0404  0.0263
22821W        W26419   5.443  12.343   0.175  0.0434  0.2569 -0.2517
22822W        W26420   3.147   3.174   4.392  0.0515 -0.2063  0.1604
22823W        W26421   7.852   6.840  12.906 -0.1351  0.1601 -0.1863
22824W        W26422  10.408   5.140   5.659 -0.0184  0.1401 -0.3019
22825W        W26423   3.930  15.076   7.210  0.0530  0.2487 -0.1571
22826W        W26424   6.994  10.702   3.017 -0.0096 -0.1818  0.0019
22827W        W26425   5.385   1.646   3.367  0.2147 -0.0805  0.0837
22828W        W26426   3.016  13.348   4.121 -0.0219 -0.1478  0.1100
22829W        W26427   4.963   5.939  14.597  0.2287  0.1997 -0.0263
22830W        W26428   2.774   3.491   7.623 -0.1614  0.0571  0.0726
22831W        W26429  10.618  13.104  15.705 -0.4965  0.2649  0.1656
22832W        W26430   1.433   4.973   6.925 -0.3187  0.2226 -0.0630
22833W        W26431  15.847   7.515  16.141 -0.0536 -0.0820  0.1802
22834W        W26432   5.550  10.334   3.810 -0.1339 -0.0548  0.0641
22835W        W26433   8.185   9.327   1.478 -0.3614 -0.1835  0.1845
22836W        W26434  12.453   0.902   4.567  0.0229  0.2646  0.2811
22837W        W26435   5.455  11.091   2.756 -0.1516  0.1769  0.1207
22838W        W26436   8.861  12.634  11.871  0.2357 -0.0239  0.1287
22839W        W26437   5.274   3.996  11.144 -0.1672  0.0168 -0.0841
22840W        W26438  13.612   4.913  12.685 -0.1523 -0.2455 -0.0931
22841W        W26439  15.299   8.973  16.064 -0.1188  0.1451 -0.1879
22842W        W26440   1.335   0.601  12.618  0.0572  0.2295  0.1574
22843W        W26441  13.918   9.494   6.407  0.0527  0.0022  0.0600
22844W        W26442   8.255  13.909   9.655 -0.0391  0.0660 -0.2481
22845W        W26443   2.517  15.928   5.981 -0.0085 -0.1366  0.0313
22846W        W26444   5.274   5.817   8.270  0.1305 -0.0369  0.0656
22847W        W26445   1.697  10.551  10.506  0.1148  0.0038 -0.1142
22848W        W26446   0.937  13.462  10.898 -0.0424  0.0420 -0.2961
22849W        W26447   8.095  10.517   2.454  0.1122 -0.0096 -0.0005
22850W        W26448  14.050   0.432  10.262  0.1337  0.0168 -0.0949
22851W        W26449  15.889   8.112   3.336 -0.5450  0.0985  0.1402
22852W        W26450  10.441   8.729   2.468 -0.2669 -0.3078  0.0736
22853W        W26451  14.370   7.516  13.894 -0.1315  0.1315 -0.0931
22854W        W26452  10.370  12.669   6.567  0.2637  0.0407 -0.2987
22855W        W26453   8.226  10.885  13.158  0.0041 -0.1289  0.0889
22856W        W26454   6.020   4.567   5.905  0.1123 -0.0982  0.0447
22857W        W26455   0.759  14.214   7.480  0.1794 -0.1259  0.1054
22858W        W26456  15.061   0.723   7.593  0.2714 -0.1638 -0.2270
22859W        W26457  14.429   2.678  10.138 -0.2282 -0.3960 -0.2266
22860W        W26458   4.623   4.760   9.887  0.3670  0.0970 -0.1732
22861W        W26459   1.164  14.311  13.829 -0.0186  0.2741 -0.0126
22862W        W26460   6.192  14.997  11.403  0.1595  0.0974  0.5283
22863W        W26461  11.246   1.626   8.735  0.0440 -0.1110  0.0139
22864W        W26462   0.316   2.726   4.813  0.0967 -0.1281 -0.1797
22865W        W26463  10.725   9.060  10.108  0.1451 -0.2411  0.1381
22866W        W26464   2.528  13.165  14.059 -0.4161  0.0396 -0.0348
22867W        W26465  11.399   9.782   1.649  0.1830  0.3444 -0.0168
22868W        W26466   2.930   2.404  13.031  0.0342  0.1735 -0.0660
22869W        W26467   3.225   3.444   0.909 -0.4708 -0.0915 -0.1940
22870W        W26468  10.681   2.413  14.939  0.0672  0.2170 -0.2277
22871W        W26469  11.023   5.946   6.527  0.1036 -0.1711  0.0705
22872W        W26470   9.684  12.123   4.079 -0.0012 -0.1045 -0.2244
22873W        W26471   7.665  14.996   8.871  0.0688  0.0766 -0.0886
22874W        W26472   4.630  15.334   7.400 -0.0734 -0.2721 -0.0719
22875W        W26473   3.252  15.212  16.346  0.3863 -0.1693  0.3203
22876W        W26474  13.543  11.391  14.249  0.1947  0.0325 -0.1613
22877W        W26475  15.935   2.118  11.575 -0.0786  0.1266  0.1297
22878W        W26476  10.747  10.882   6.432 -0.0244  0.0576 -0.0748
22879W        W26477   4.872   8.316   7.107  0.0390 -0.0052 -0.1048
22880W        W26478  14.752  10.441   2.624 -0.0017  0.1962  0.1604
22881W        W26479   1.194   0.715   3.375  0.1283  0.1695  0.0826
22882W        W26480   6.550  11.742   2.614 -0.3161  0.0646 -0.1943
22883W        W26481   8.554  16.181   9.949  0.0602  0.0708  0.0996
22884W        W26482  10.840   8.553   1.593  0.2025 -0.1136 -0.0451
22885W        W26483  15.431  14.530  13.363 -0.2153  0.0138 -0.1049
22886W        W26484  14.151   4.738  10.404 -0.0493  0.0885  0.2032
22887W        W26485   1.772   1.161  10.486  0.0939 -0.1803  0.1631
22888W        W26486  12.606  15.323   5.178  0.0170  0.3260 -0.1075
22889W        W26487   4.957  11.049   3.186 -0.1370 -0.0937  0.0921
22890W        W26488   4.196   8.252   2.489 -0.3365 -0.0114  0.0250
22891W        W26489  13.376   6.357   7.242  0.1211  0.2105 -0.2817
22892W        W26490   7.313   5.549   7.459 -0.2058 -0.1028 -0.2424
22893W        W26491   1.644  12.587   3.150  0.1430 -0.1829  0.0480
22894W        W26492   4.104   6.591   0.311  0.1210 -0.2584 -0.1949
22895W        W26493   1.200   2.777  14.456  0.1546  0.1164 -0.1162
22896W        W26494   7.021  13.616   9.656 -0.2868  0.2356 -0.2007
22897W        W26495   8.870   5.352  12.915 -0.1681  0.1838  0.0848
22898W        W26496   7.504   1.311  11.385 -0.2708  0.1711  0.2334
22899W        W26497  13.473   9.788   9.087  0.0047  0.2187  0.2316
22900W        W26498   6.582   3.519   6.695  0.2016  0.1698 -0.1236
22901W        W26499   2.695   1.153   5.582  0.1668 -0.1168 -0.2045
22902W        W26500   5.257  11.152   6.665  0.1602 -0.5030 -0.2051
22903W        W26501  14.563   0.267  10.107 -0.0624  0.0205 -0.0651
22904W        W26502  12.489  16.229   8.714 -0.1361  0.2195  0.0314
22905W        W26503   7.000  15.690  13.413  0.3322  0.1042 -0.3125
22906W        W26504   0.057   4.946   7.132  0.1279  0.2237 -0.0169
22907W        W26505   4.368  11.230   5.104 -0.1125 -0.1762  0.0917
22908W        W26506  13.507   5.169  13.914 -0.2676  0.0370  0.1494
22909W        W26507   2.541  14.308   6.291 -0.0525 -0.1042  0.0491
22910W        W26508   6.089  10.429  10.290  0.0814  0.0464  0.1311
22911W        W26509  15.266   0.286   7.663 -0.1653 -0.1893  0.0511
22912W        W26510  14.099  13.896   2.457  0.1306  0.2799  0.0191
22913W        W26511   4.003  15.091  15.109  0.0753 -0.0505 -0.2951
22914W        W26512   6.941  16.116  13.605  0.1615  0.2817 -0.0999
22915W        W26513   7.522  12.485   6.279 -0.0034 -0.1684 -0.1660
22916W        W26514   0.898  14.977   9.978  0.1213 -0.2480 -0.1289
22917W        W26515   6.695  12.562   5.287  0.3241 -0.2324  0.0493
22918W        W26516   8.058  13.657   4.864 -0.3609 -0.0566  0.3194
22919W        W26517   6.209   8.972  11.125  0.1120 -0.3111 -0.2211
22920W        W26518   9.864  13.815   5.653  0.1014 -0.2464  0.0571
22921W        W26519  15.073   3.676  14.928 -0.1175  0.0076  0.1740
22922W        W26520   4.708   8.020  16.321  0.2474 -0.4513  0.0633
22923W        W26521   5.646   9.083   8.974  0.0285  0.0647  0.0564
22924W        W26522   1.098   4.855  13.138 -0.3413  0.1649 -0.2020
22925W        W26523   0.840   2.044  13.102 -0.1774 -0.0047 -0.2840
22926W        W26524  12.243  12.090   9.633  0.0379 -0.0823  0.1809
22927W        W26525   8.820   5.711  11.537 -0.2433 -0.1270 -0.1638
22928W        W26526   9.087  14.991   1.821  0.0861 -0.1438 -0.0884
22929W        W26527  11.168  10.593   3.668  0.1746  0.2994  0.2058
22930W        W26528   2.237  14.903   5.062  0.0507 -0.0148  0.2664
22931W        W26529   2.828   2.061  11.343 -0.0061  0.0994 -0.0895
22932W        W26530   6.021   4.112   5.552  0.0625  0.0512  0.3408
22933W        W26531   8.195   6.336  16.307 -0.2211  0.1461  0.1430
22934W        W26532   2.430   0.431  11.630  0.0197  0.0134  0.0157
22935W        W26533   9.006  14.135  13.777 -0.4377  0.0891 -0.2024
22936W        W26534   3.088   4.532   6.080 -0.2742 -0.0755  0.4238
22937W        W26535   2.788   6.031  10.103 -0.3900 -0.1243  0.2077
22938W        W26536   5.656   5.964  15.363 -0.1126  0.1903  0.1035
22939W        W26537  15.735   1.647   7.151 -0.1846  0.1057 -0.0584
22940W        W26538   8.003   4.883   5.264  0.1008  0.1599  0.1083
22941W        W26539   3.472  11.375  10.435  0.0534 -0.0233 -0.2869
22942W        W26540  15.619   4.180   7.510 -0.0986 -0.1446 -0.0457
22943W        W26541   5.573   9.258  12.641  0.1247  0.1788 -0.1627
22944W        W26542   7.664   9.413   9.168 -0.2958  0.0702  0.0700
22945W        W26543   4.551   6.056   1.818  0.3251  0.2449 -0.0978
22946W        W26544   6.706  16.371   3.206  0.0471  0.2517  0.1273
22947W        W26545   4.914  14.151   0.762  0.2111 -0.1957  0.1157
22948W        W26546   0.390   6.240  11.631 -0.1485 -0.3939 -0.1508
22949W        W26547  10.914  10.163   3.657  0.2775 -0.1769  0.2147
22950W        W26548   6.769   4.870  16.070 -0.2489  0.1499 -0.3938
22951W        W26549   2.017  15.243   4.257 -0.2518 -0.1017 -0.0197
22952W        W26550   5.096   9.230   6.558 -0.0741 -0.0921 -0.2902
22953W        W26551   0.023   4.071   4.247  0.2443  0.0178 -0.0654
22954W        W26552   7.037   5.735   4.923 -0.1408 -0.0690  0.2928
22955W        W26553  12.623   0.822   0.688 -0.2507 -0.1003 -0.1761
22956W        W26554   3.307   5.748  10.568  0.1549  0.1057 -0.0039
22957W        W26555   9.489  11.301   9.871 -0.5366 -0.1425  0.0523
22958W        W26556   8.595  10.335   3.100  0.1083 -0.1446 -0.0524
22959W        W26557   2.752   6.723   2.936  0.0589  0.1453  0.1134
22960W        W26558   9.818   6.372   1.137  0.1910  0.2971  0.0495
22961W        W26559   5.263   5.161  16.226  0.2429 -0.1909  0.0690
22962W        W26560  10.881  11.416   8.508  0.2611 -0.1810  0.2755
22963W        W26561  14.890   1.031   9.759 -0.2886 -0.0149  0.0194
22964W        W26562   4.479  10.030   9.022 -0.2229  0.1072  0.0310
22965W        W26563   8.303   5.883  12.345  0.1261 -0.0877  0.0829
22966W        W26564  14.396  12.692   6.827 -0.0088  0.0890 -0.1666
22967W        W26565  13.155   5.913   8.126 -0.2986 -0.0326  0.0149
22968W        W26566   2.334   6.672   7.998  0.1909  0.5497 -0.1203
22969W        W26567   1.840   4.110  10.716  0.1109  0.3723  0.3258
22970W        W26568   0.376   3.140  14.499  0.0353 -0.1120  0.0410
22971W        W26569   6.663   8.057  11.262  0.0099 -0.0832 -0.0970
22972W        W26570   3.613  13.807  14.304  0.0788  0.0658 -0.0113
22973W        W26571  13.074  15.785  11.031 -0.2278 -0.0491 -0.3996
22974W        W26572  15.728  12.414   0.236 -0.1901  0.0426  0.0088
22975W        W26573  11.856   0.902  10.871 -0.0881 -0.0400 -0.0565
22976W        W26574   5.321   6.511   5.347  0.0747  0.2278 -0.0874
22977W        W26575   3.500   4.465  12.003  0.1589 -0.3691 -0.3626
22978W        W26576  15.248   3.948   7.745 -0.1556  0.0293 -0.0656
22979W        W26577   3.636   4.604  14.511  0.2160 -0.2447 -0.0312
22980W        W26578   4.933  13.464  10.233 -0.2800  0.0135 -0.1913
22981W        W26579   7.105  14.183   5.839 -0.0090  0.0108  0.0740
22982W        W26580   7.332   1.460   3.861 -0.0547 -0.0518 -0.0657
22983W        W26581   2.433  12.720   0.379 -0.2101  0.0814  0.1295
22984W        W26582   6.992   5.907  13.295  0.0905  0.1847  0.1047
22985W        W26583  14.360   4.652  12.737 -0.0765 -0.0147 -0.1144
22986W        W26584   9.576   5.263   8.056  0.4272  0.0042  0.0994
22987W        W26585  10.093  12.167   3.222  0.1682 -0.2688  0.2165
22988W        W26586  15.108   4.261  12.026  0.0488  0.0233 -0.0731
22989W        W26587  13.395   1.127  15.189 -0.0915 -0.1043 -0.1158
22990W        W26588  11.056   6.271   0.304  0.2176 -0.1055  0.3340
22991W        W26589   7.774   1.898   0.950  0.0695 -0.0444 -0.1902
22992W        W26590   8.656   3.923   4.616 -0.0517  0.1140  0.1822
22993W        W26591  10.215  13.987   2.521  0.2393 -0.4011  0.2603
22994W        W26592   2.926   7.667   4.231  0.0938 -0.0614  0.0504
22995W        W26593   9.094   1.976  13.347 -0.0057  0.0420 -0.1524
22996W        W26594  11.707   6.521   9.424 -0.0085 -0.1576 -0.1021
22997W        W26595  15.294   4.484   1.787  0.2955 -0.0531 -0.1470
22998W        W26596  11.817  10.020   0.216  0.2086  0.2713  0.0318
22999W        W26597  12.937   4.275   2.783  0.2693  0.0198 -0.0800
23000W        W26598   1.075  12.906  14.385  0.1024  0.0641  0.0783
23001W        W26599   1.844  10.482   1.956  0.2796  0.1930  0.0640
23002W        W26600  13.560   7.488  14.849  0.2057  0.1373 -0.1126
23003W        W26601   3.905   6.579   8.993 -0.0344 -0.0131  0.3379
23004W        W26602   8.802  11.393  10.112 -0.1083  0.1399 -0.1185
23005W        W26603   1.455  14.663  16.298 -0.2176 -0.0549 -0.2290
23006W        W26604   6.824   0.099   1.825  0.3529  0.0533  0.1330
23007W        W26605  11.370  16.116   7.064 -0.2357  0.1190 -0.0944
23008W        W26606  12.077  14.829   4.436 -0.0464 -0.0236  0.2467
23009W        W26607   5.561   3.721   6.979  0.0758  0.0278  0.1816
23010W        W26608  16.259   9.424   9.666  0.1667  0.0223 -0.0864
23011W        W26609  15.394   5.467  11.289  0.2332  0.0736  0.3949
23012W        W26610  12.048   0.984   6.093 -0.3188 -0.4614 -0.0896
23013W        W26611  15.484  14.135   2.171 -0.0352 -0.0158  0.1428
23014W        W26612   8.033   5.574   2.804  0.4150  0.0277  0.0986
23015W        W26613  14.371  10.969   8.102 -0.1638 -0.0904 -0.1505
23016W        W26614   9.198  11.310  14.931 -0.0953 -0.2607 -0.1906
23017W        W26615  15.437  12.906   1.623 -0.3163 -0.2465  0.2874
23018W        W26616   6.414   6.408   3.867 -0.3448  0.0489 -0.0502
23019W        W26617   3.714   1.199  14.353 -0.1030 -0.0789  0.1567
23020W        W26618   5.003   6.157   0.991  0.1300 -0.0388  0.1443
23021W        W26619  12.220  12.249   8.457  0.3328  0.2764 -0.5016
23022W        W26620   8.468   0.814  12.640  0.2681 -0.1174  0.0271
23023W        W26621  12.463   9.807   5.405 -0.1980 -0.1433 -0.0356
23024W        W26622  12.172  12.998  11.168 -0.2365 -0.2439  0.3500
23025W        W26623  13.336   1.948   8.116 -0.1821 -0.3156 -0.0152
23026W        W26624  12.620   8.447  15.799 -0.1058 -0.0682  0.3673
23027W        W26625   6.756   1.058   1.635  0.0843 -0.0428 -0.0647
23028W        W26626   4.912   6.176  15.967  0.3333 -0.2628  0.1005
23029W        W26627   3.671   8.217   6.761  0.0679 -0.1688  0.0216
23030W        W26628   6.730   5.584  16.384  0.4802 -0.2304 -0.1509
23031W        W26629   0.626   7.337   3.278  0.0249 -0.2658  0.2545
23032W        W26630  10.488  13.327  15.310 -0.4005 -0.1581 -0.0178
23033W        W26631  11.294  10.610   5.601 -0.1894 -0.3054 -0.0834
23034W        W26632   9.409  12.324   1.447  0.0632 -0.1249  0.0402
23035W        W26633  11.572  15.858  12.728 -0.1685 -0.0562  0.1332
23036W        W26634   2.964  14.214  13.118 -0.0129 -0.0678  0.0808
23037W        W26635   0.597  11.207  10.413  0.2832 -0.0704 -0.0796
23038W        W26636   0.028   2.267   8.635  0.0393  0.2542 -0.1050
23039W        W26637  15.527   0.961  12.562 -0.0570  0.1066 -0.1266
23040W        W26638  13.192   6.961  15.004 -0.0915  0.0729 -0.0752
23041W        W26639  12.408   6.209   7.908  0.1537  0.0503 -0.0667
23042W        W26640  11.221   8.529   3.142  0.1599  0.2327  0.1512
23043W        W26641   0.744  15.256   3.530  0.1916  0.0201  0.0676
23044W        W26642  10.539  10.754  10.744  0.0253  0.1031  0.0709
23045W        W26643  11.794  11.313   9.814 -0.2663  0.0506  0.1627
23046W        W26644   1.389   8.879  12.399 -0.0316 -0.0519  0.3377
23047W        W26645   0.253  10.313  12.870  0.0240  0.1196 -0.3461
23048W        W26646  14.699   7.852  14.872  0.1626  0.1877 -0.0595
23049W        W26647   8.619   4.113  11.567  0.0490  0.2007  0.1474
23050W        W26648   4.132   1.893   8.368 -0.1527  0.1570  0.0464
23051W        W26649   1.125   0.802  13.992  0.1688 -0.0133 -0.0268
23052W        W26650  16.347   1.861  11.448  0.1097  0.2147  0.4497
23053W        W26651   7.111  12.020   7.986 -0.1758 -0.0745 -0.1170
23054W        W26652  15.074   5.607  15.163 -0.0426  0.3538  0.0185
23055W        W26653  11.971   9.438  14.522 -0.0004 -0.1055  0.0220
23056W        W26654   2.118   1.179   6.856 -0.2349  0.0385 -0.3959
23057W        W26655  14.494  12.820  10.861  0.0567  0.2594 -0.1969
23058W        W26656   2.855   7.775  14.472  0.0461 -0.2456 -0.1884
23059W        W26657   0.669  13.388  11.382  0.1505 -0.0655 -0.0076
23060W        W26658   0.237  16.246  14.098 -0.0485 -0.0270 -0.0062
23061W        W26659   0.848   0.871   3.041  0.0577 -0.0711 -0.1473
23062W        W26660   9.365  14.269   6.282  0.2483  0.3993  0.3425
23063W        W26661   9.174   6.557   6.503  0.0517  0.0582  0.0834
23064W        W26662   8.376   4.353  15.500 -0.2973  0.1204  0.0135
23065W        W26663   7.023  12.705  14.402  0.1552 -0.4869 -0.4103
23066W        W26664  13.953   9.823   8.871 -0.0633 -0.0739 -0.0981
23067W        W26665   3.425   0.770   9.663 -0.0501  0.0148 -0.3897
23068W        W26666  10.744   7.277  15.121 -0.1126 -0.4801  0.0926
23069W        W26667   1.086  13.151  13.429  0.1520  0.1649 -0.2027
23070W        W26668  14.189   7.681  11.787  0.2499  0.0341 -0.0345
23071W        W26669  14.754   3.837  10.742  0.1200 -0.0228 -0.1134
23072W        W26670  13.906   3.009  12.312  0.0587 -0.1139 -0.3557
23073W        W26671   7.043   9.164   8.554  0.1001 -0.0369  0.2541
23074W        W26672   4.878   6.774  12.965  0.0304 -0.1971  0.0690
23075W        W26673  14.568   3.661  16.283  0.0289 -0.1806  0.0831
23076W        W26674   3.496   4.267   5.821 -0.1463 -0.1962  0.1125
23077W        W26675   4.062  14.032  10.343 -0.5941  0.2368 -0.1407
23078W        W26676   6.690   3.578  13.075 -0.1126  0.3977  0.0151
23079W        W26677   4.818  16.184  13.690 -0.1740 -0.1582  0.0632
23080W        W26678   9.154   3.814   4.404  0.1467 -0.1091  0.0518
23081W        W26679  14.058   1.141   4.814 -0.0574  0.1915  0.0806
23082W        W26680   8.095   3.472  15.748  0.0302 -0.3260  0.1488
23083W        W26681  13.447   7.105   4.115  0.2004  0.0886  0.1299
23084W        W26682   4.511   2.784  10.235 -0.3083 -0.0277  0.0435
23085W        W26683  11.876  14.565  15.775 -0.2085 -0.1354  0.1334
23086W        W26684   1.610   7.839   0.111 -0.1787  0.2977 -0.0796
23087W        W26685   8.143   1.516   1.273  0.1634  0.2030 -0.2080
23088W        W26686  13.302   1.536  13.030 -0.0898  0.1489 -0.0223
23089W        W26687   2.833  15.680   2.925  0.3273 -0.0687  0.0865
23090W        W26688  13.951  10.130   0.630  0.3665 -0.2564  0.0888
23091W        W26689   2.256   0.611   0.091  0.0358 -0.0429  0.0151
23092W        W26690   5.791   6.329  16.308  0.2282  0.0525 -0.3678
23093W        W26691   0.339  14.312   0.202  0.0177  0.0920  0.1622
23094W        W26692   4.421   3.194   5.259  0.0460 -0.0304  0.0437
23095W        W26693   6.791  12.714   9.806  0.0074 -0.1599  0.3180
23096W        W26694  12.002   9.742   8.196 -0.0238  0.0206 -0.0733
23097W        W26695  15.414   2.051   5.650 -0.1256  0.1704 -0.0162
23098W        W26696   0.637   2.661   7.228  0.0405 -0.1933  0.1834
23099W        W26697  11.344   4.066  12.711  0.2177  0.1099  0.2739
23100W        W26698   2.112   4.380  13.838 -0.0339 -0.1391 -0.0926
23101W        W26699   8.798   2.344   3.630  0.1645 -0.0954  0.2465
23102W        W26700  11.655   8.858   4.795  0.0249 -0.1983  0.1245
23103W        W26701  10.953  10.569  15.352 -0.1325 -0.0819  0.0496
23104W        W26702   7.415  12.744   6.824  0.1825  0.1776  0.2523
23105W        W26703  14.559   2.732   9.298 -0.1587  0.1230 -0.2680
23106W        W26704   2.793  11.029  15.645  0.0416  0.1353  0.1306
23107W        W26705  12.184   8.572  13.658 -0.1005  0.0537 -0.1824
23108W        W26706  14.141  12.854  16.366 -0.0440  0.1857  0.0878
23109W        W26707   2.328   6.529  11.761 -0.0785 -0.1507 -0.0279
23110W        W26708   9.563   6.433  15.656  0.1714 -0.0751 -0.2221
23111W        W26709  12.340  10.390   3.271  0.1294  0.0769 -0.1005
23112W        W26710  15.001  15.784  13.493  0.2647 -0.1480 -0.2580
23113W        W26711   8.481   5.025   8.879 -0.0634 -0.3218 -0.0190
23114W        W26712  13.360   3.556  13.089 -0.2174 -0.4678  0.0724
23115W        W26713   9.177  14.853  14.271  0.2187 -0.0807  0.1107
23116W        W26714  10.496  12.501   4.603 -0.2918 -0.2570 -0.4944
23117W        W26715   7.536   4.958  12.679  0.1236 -0.1010  0.2152
23118W        W26716   9.878   1.522   7.935 -0.0341  0.2246 -0.0698
23119W        W26717   9.277   7.377   5.910  0.2795  0.0180 -0.3545
23120W        W26718  16.310  12.619   6.800 -0.1081 -0.1900 -0.0450
23121W        W26719  10.242  12.106  12.345 -0.3656  0.3956  0.1011
23122W        W26720   6.456  10.613  12.121 -0.5197 -0.1254 -0.1635
23123W        W26721   7.848   8.744   7.350  0.1039 -0.1290  0.1626
23124W        W26722   4.411   7.585  16.302 -0.0271  0.0055 -0.0441
23125W        W26723  11.993   7.654   9.729 -0.3329 -0.0840 -0.0481
23126W        W26724   8.546  12.421   2.330 -0.1487 -0.0614 -0.1521
23127W        W26725   1.232   4.642   1.261  0.3895 -0.0454  0.0766
23128W        W26726  14.745  11.921   4.523  0.1307  0.1658 -0.4682
23129W        W26727  13.305  13.501   2.075  0.2471 -0.0427  0.1499
23130W        W26728   8.365   0.369  14.099  0.0407 -0.3016  0.0014
23131W        W26729  12.445  15.301   4.591  0.1795  0.0718 -0.2573
23132W        W26730   7.619  12.479   2.453  0.2783 -0.2756  0.0608
23133W        W26731  14.954  14.511  14.954 -0.0137 -0.0342  0.1084
23134W        W26732   0.767  11.597   6.430 -0.1948 -0.2451  0.1293
23135W        W26733   5.914  12.601  13.651  0.0358 -0.2360 -0.3387
23136W        W26734  14.308   6.211   4.292  0.1500 -0.0338  0.5366
23137W        W26735   3.914  13.353   4.071  0.0031 -0.2175  0.0912
23138W        W26736   3.414   7.325  13.598 -0.0529  0.0348  0.0104
23139W        W26737   3.868  11.582  16.290  0.0708  0.0480  0.0420
23140W        W26738  10.572  13.284  10.582  0.0630  0.2981  0.0676
23141W        W26739  13.026   7.853   9.781 -0.0028  0.2700  0.0804
23142W        W26740  10.920   7.515   4.741 -0.2274 -0.2652  0.1089
23143W        W26741  13.170   5.469   5.298  0.0598 -0.0728 -0.0639
23144W        W26742  10.775  10.170   7.900  0.1443 -0.1919 -0.1727
23145W        W26743   8.392  11.327   1.290 -0.0340  0.0911 -0.1299
23146W        W26744   2.313   1.149   8.698 -0.2096 -0.1867  0.0621
23147W        W26745   5.842   8.935   7.595  0.0128 -0.0128  0.0426
23148W        W26746  10.684   0.345   6.218  0.2196 -0.1544  0.2675
23149W        W26747   3.478   9.055   4.359 -0.0960 -0.2268 -0.0775
23150W        W26748  13.753   3.579   7.790  0.2525 -0.3051  0.0619
23151W        W26749   1.303   8.389   2.672 -0.0078  0.0434  0.0593
23152W        W26750  15.461  14.716   8.658  0.1386  0.3382  0.0341
23153W        W26751   7.930  13.416   7.125 -0.3394  0.0448  0.0936
23154W        W26752   7.948   7.129  10.510  0.3012 -0.4547 -0.2292
23155W        W26753   7.724   4.651  14.607  0.0233 -0.0752 -0.1266
23156W        W26754   0.999   8.784  10.888  0.1027 -0.1150 -0.5104
23157W        W26755   2.045   2.585   6.734  0.0781  0.1528 -0.1602
23158W        W26756  12.319   6.575   8.815  0.1261 -0.1350 -0.0498
23159W        W26757  11.287  15.732   4.246  0.0340  0.0858  0.0803
23160W        W26758   6.870   7.564  12.223  0.2013 -0.1947 -0.3953
23161W        W26759   2.742  13.809  12.237  0.1112 -0.4342 -0.0318
23162W        W26760   5.126   3.572  13.457 -0.1217 -0.0756  0.0430
23163W        W26761   6.206   9.385  14.709 -0.3618  0.0598  0.2499
23164W        W26762  15.136   7.656   7.979 -0.1011  0.1287 -0.0475
23165W        W26763   3.328   7.215  15.497  0.0806  0.2554  0.1217
23166W        W26764  12.942   4.360  15.687 -0.0989 -0.0172  0.2168
23167W        W26765  13.042   7.391  14.806 -0.1898  0.2079  0.0616
23168W        W26766   6.654  14.511   3.681  0.0987 -0.0537 -0.1729
23169W        W26767   1.807  15.490   1.952 -0.2113  0.1194 -0.0169
23170W        W26768   9.815   0.659  10.668  0.1115 -0.1280  0.1178
23171W        W26769  15.802  12.386   2.258 -0.1968 -0.0916  0.2061
23172W        W26770  12.812  15.970   9.337  0.0476  0.1344  0.0235
23173W        W26771   0.566  16.042   3.545 -0.0434 -0.1546  0.2124
23174W        W26772   6.937   8.954   9.560 -0.0536 -0.0000  0.0253
23175W        W26773   6.014   9.222  13.187  0.0954 -0.0871  0.0242
23176W        W26774   5.725  14.840  10.148 -0.1895 -0.0929 -0.0163
23177W        W26775  16.354  13.642   7.452  0.2364  0.3070  0.0392
23178W        W26776   1.182  14.498   7.420 -0.1014  0.2085  0.0400
23179W        W26777  11.514   9.439   8.289  0.1023  0.2803  0.0359
23180W        W26778   7.254   0.596  11.822  0.0733  0.1549 -0.2155
23181W        W26779   2.114   6.158  12.200 -0.0262  0.3002  0.2562
23182W        W26780   7.733  15.871  16.048 -0.1311 -0.0491  0.2968
23183W        W26781   3.111  10.682  16.273  0.1477 -0.0651  0.0304
23184W        W26782   8.163   4.028   4.837 -0.4591 -0.0145  0.0231
23185W        W26783   1.107  10.042   1.602 -0.1515  0.2128  0.2363
23186W        W26784  14.687   5.570   7.056  0.1327  0.0082 -0.1019
23187W        W26785   2.849   9.635   1.630  0.0426 -0.0890  0.0763
23188W        W26786  12.204  13.780  16.087 -0.2385 -0.1919 -0.0664
23189W        W26787  10.775   0.084   5.308  0.0167  0.2996 -0.2992
23190W        W26788  13.929   9.057   0.803  0.2911  0.0176  0.0586
23191W        W26789  12.881   5.073   9.993 -0.1393  0.0587 -0.0466
23192W        W26790  10.944  16.220   6.438 -0.2667  0.1240 -0.0341
23193W        W26791  12.424   9.809   4.869  0.0694 -0.3149  0.2661
23194W        W26792   7.817   5.312   3.690 -0.0395 -0.0724  0.3033
23195W        W26793  14.565   1.863  14.968 -0.1859  0.0901  0.1361
23196W        W26794   1.176  10.302  15.812  0.5739  0.2083  0.0988
23197W        W26795   8.619   0.054   4.242  0.0790 -0.1095 -0.0734
23198W        W26796   6.519   3.254   1.153  0.1536 -0.0918  0.2092
23199W        W26797  15.867   9.219  15.265 -0.0677 -0.0904 -0.0507
23200W        W26798   4.591  15.597   1.077  0.0513 -0.1665  0.0749
23201W        W26799  15.273   0.869  11.552  0.1074  0.0170 -0.0702
23202W        W26800   4.577   2.409   8.486 -0.1104  0.0371  0.1164
23203W        W26801   6.761  10.907   2.109  0.1003  0.1288 -0.1033
23204W        W26802   5.500  10.244   2.924  0.1971  0.2104 -0.0698
23205W        W26803   4.981  10.770   0.072 -0.2078 -0.1972  0.2081
23206W        W26804  13.434   7.110   1.293 -0.4121 -0.0738  0.0500
23207W        W26805  13.260   3.086  13.267  0.1363 -0.1918  0.1853
23208W        W26806   6.476   4.218   9.095 -0.1020  0.0105 -0.0155
23209W        W26807   6.749   0.539   1.555  0.0229  0.1710  0.0728
23210W        W26808  11.485   5.882   4.503 -0.0353 -0.2307 -0.2145
23211W        W26809   3.137  13.445   7.554 -0.1031 -0.1223 -0.1695
23212W        W26810  11.091   0.232  15.469 -0.4427  0.4199  0.1072
23213W        W26811   2.372  10.388   5.617 -0.2814 -0.1531  0.1266
23214W        W26812   7.795   6.003  15.568 -0.1653 -0.2384  0.1171
23215W        W26813  10.537   6.349   9.161 -0.0906  0.0454  0.1045
23216W        W26814   0.787  15.502   2.246  0.0101  0.0506  0.0494
23217W        W26815   3.777   2.987  14.505  0.1209 -0.0825 -0.0319
23218W        W26816   6.494   3.662  13.586  0.2068 -0.0057  0.0645
23219W        W26817   0.394  14.331  13.389 -0.1439  0.1115  0.0609
23220W        W26818   7.267   2.058   0.811  0.0650 -0.0924  0.0431
23221W        W26819   5.869  13.496  13.052  0.0535  0.3368 -0.3732
23222W        W26820  15.485   6.307  14.495 -0.0711  0.1216  0.0278
23223W        W26821   6.649   9.535  15.645 -0.1028  0.2376  0.2279
23224W        W26822   5.487  13.728  10.263 -0.0817  0.0893 -0.1562
23225W        W26823   5.290   0.894   8.796 -0.2050 -0.1912  0.1284
23226W        W26824   2.075  15.887  15.396  0.0424  0.1468 -0.1195
23227W        W26825   4.868   2.083   0.611  0.1594 -0.0152 -0.0400
23228W        W26826   5.429  14.523   2.957 -0.4313  0.0594  0.3227
23229W        W26827  15.193   3.979   4.824  0.0310  0.0541  0.1846
23230W        W26828  13.345   6.565  10.217 -0.1990 -0.0003 -0.5174
23231W        W26829  10.821  14.613   2.911  0.0562  0.1779  0.0803
23232W        W26830  10.643   0.810  15.873 -0.2635  0.0619 -0.2531
23233W        W26831   2.970  13.818   4.174 -0.2816  0.2445  0.2809
23234W        W26832   2.994   4.215   5.710 -0.1021  0.1370  0.2451
23235W        W26833  13.645   0.950   0.104  0.0822 -0.3166  0.0185
23236W        W26834  12.033   3.235   6.519  0.0544  0.4422 -0.2597
23237W        W26835  13.481   6.394  12.822  0.1197  0.3446 -0.2105
23238W        W26836   9.968   8.661   2.541 -0.0109 -0.2884 -0.0680
23239W        W26837  11.527   0.788   0.556 -0.0609 -0.3306 -0.2083
23240W        W26838  12.835  14.105  10.634 -0.0471  0.1924  0.0792
23241W        W26839   7.328  15.768  14.855  0.0937  0.2723 -0.2078
23242W        W26840  13.252   5.385   7.482  0.3444 -0.1294  0.1839
23243W        W26841   9.898   4.458  11.960 -0.0924  0.0628  0.0748
23244W        W26842   4.207  14.940  13.506  0.0944 -0.3105 -0.3046
23245W        W26843   4.906   3.117  13.250  0.0044  0.4300  0.0176
23246W        W26844   9.123   6.112  12.904 -0.2099 -0.1537  0.3236
23247W        W26845   9.856  12.639   0.836 -0.2363  0.0488 -0.0248
23248W        W26846  15.876   1.430   6.728 -0.0300 -0.1448  0.0719
23249W        W26847   7.709   5.843   7.616 -0.1749  0.1561  0.0981
23250W        W26848   3.167  13.238   1.057 -0.0685  0.0228 -0.0013
23251W        W26849  11.594  11.617   6.875  0.1187  0.1191 -0.1587
23252W        W26850  12.090   4.527  10.735  0.0684 -0.1633  0.2414
23253W        W26851   4.870   0.135  15.282  0.1776 -0.1938  0.1955
23254W        W26852   8.119  10.444  11.772 -0.0393  0.3499  0.0389
23255W        W26853   4.419   9.414   9.980 -0.1624  0.0506 -0.2150
23256W        W26854   9.273  13.500   7.428 -0.0648 -0.0658  0.0487
23257W        W26855  13.890  14.205   3.285  0.2082  0.3279  0.4750
23258W        W26856   2.901  15.532  13.086 -0.2276  0.2320 -0.3619
23259W        W26857   1.348   7.658   9.497  0.0553 -0.1736  0.2016
23260W        W26858   3.378   1.711  12.431  0.1969  0.0868 -0.0269
23261W        W26859  13.714  15.300   1.893 -0.0103 -0.0467 -0.1508
23262W        W26860   4.221  12.753  12.680  0.0555  0.1549  0.3280
23263W        W26861  12.557   5.989  12.679  0.2716 -0.1482 -0.1241
23264W        W26862   8.274  15.286   6.898  0.0231 -0.2411 -0.0876
23265W        W26863  11.324   8.066   5.494  0.0632  0.1340  0.5027
23266W        W26864   9.394  12.716   1.775  0.0347  0.0696 -0.1511
23267W        W26865  11.886   5.895   3.319  0.1161 -0.3089  0.4822
23268W        W26866  14.187  14.290   2.772 -0.1016  0.4756 -0.1778
23269W        W26867  13.613   4.941   0.798 -0.1128  0.2012  0.1341
23270W        W26868   3.453   0.640  10.336 -0.1152 -0.1705 -0.1913
23271W        W26869   6.714  13.029   5.023  0.0135 -0.0576 -0.1058
23272W        W26870   2.924  15.785  13.598  0.2662  0.1537  0.2307
23273W        W26871   4.408   5.512   5.326 -0.0398 -0.5399  0.1354
23274W        W26872   9.994   5.493  11.908 -0.1889 -0.0844  0.0705
23275W        W26873  10.396   7.262  12.161 -0.1656  0.0316  0.0379
23276W        W26874   3.710  13.112  13.849 -0.0988 -0.0055  0.0537
23277W        W26875  12.415  10.052   1.286 -0.2120 -0.0593 -0.0084
23278W        W26876   6.568   3.042   7.984 -0.1485  0.0214 -0.2375
23279W        W26877   8.396   4.732   9.402  0.1346  0.1685 -0.0797
23280W        W26878  11.172   1.775  13.519 -0.3993 -0.0478  0.0636
23281W        W26879  14.386  10.497   1.540  0.1403 -0.3811  0.0286
23282W        W26880  13.483   2.075  11.888  0.0566 -0.0957 -0.0444
23283W        W26881   1.928   0.791   8.899 -0.3832 -0.4489 -0.4963
23284W        W26882   7.566   5.986   8.935  0.1623  0.0429  0.4096
23285W        W26883   0.496   9.088   5.465  0.0312  0.0730 -0.1468
23286W        W26884  14.267   3.276   7.257 -0.0963 -0.1308 -0.3244
23287W        W26885  15.147   5.917  13.766  0.0213  0.0022  0.0498
23288W        W26886  11.201  14.384   7.043  0.2687 -0.1575 -0.0014
23289W        W26887  15.303  16.337   1.628  0.0814 -0.0210  0.2864
23290W        W26888   4.867  14.881  15.261 -0.0214 -0.1785 -0.3282
23291W        W26889   2.516  14.547   2.630 -0.0530 -0.2633  0.2199
23292W        W26890   6.084  11.068   5.498 -0.1829 -0.0218 -0.0953
23293W        W26891  10.274  13.781  15.232  0.2388  0.1022  0.0167
23294W        W26892   0.476   6.491   9.243 -0.1079 -0.1003  0.2019
23295W        W26893   6.115  15.365   0.638  0.2251  0.0015 -0.1510
23296W        W26894  15.700   1.090  11.768  0.3217  0.0446  0.0264
23297W        W26895  11.701   0.191   5.789 -0.0436  0.1252 -0.0230
23298W        W26896  12.565   1.694  15.427 -0.1729 -0.3415  0.2974
23299W        W26897  14.405   5.727  11.173 -0.2365 -0.2133 -0.0282
23300W        W26898   2.897  15.259   4.837 -0.1940 -0.0446  0.0457
23301W        W26899  10.191   8.353   9.350  0.1502  0.0445  0.2310
23302W        W26900   3.601   0.255   0.018 -0.4264 -0.0586  0.4473
23303W        W26901   8.611  15.340   7.759 -0.3094 -0.0044 -0.0067
23304W        W26902   1.652   2.764   8.080  0.1706 -0.3283 -0.0913
23305W        W26903   9.746   0.535   4.485 -0.0045 -0.1121  0.2423
23306W        W26904   8.260   6.589   2.843 -0.0173  0.0824 -0.1663
23307W        W26905   3.925   0.564  15.627  0.1759  0.0422 -0.0038
23308W        W26906   3.303  10.463  15.698  0.0792 -0.0792 -0.0721
23309W        W26907   6.333   8.900  14.470 -0.0100 -0.1613  0.1056
23310W        W26908  15.692   0.470  14.800  0.1274  0.0424 -0.0409
23311W        W26909  11.830   3.535  10.745  0.2929 -0.0066 -0.4460
23312W        W26910   7.028  12.655  12.871  0.0639 -0.4223  0.1928
23313W        W26911  14.754   4.201   8.842  0.2824 -0.1639  0.0243
23314W        W26912  14.008   3.327   0.975 -0.1471  0.1760  0.0251
23315W        W26913   8.360   9.303  15.350 -0.3171 -0.0505  0.2725
23316W        W26914   2.719  14.528   0.979  0.0403 -0.0257  0.0495
23317W        W26915   6.331  10.176   6.431 -0.0157 -0.2554  0.1614
23318W        W26916   4.198   0.489   4.862  0.0112 -0.0731  0.1042
23319W        W26917   0.169   8.957   2.574  0.1303 -0.0382  0.4015
23320W        W26918   9.631  16.156   6.444  0.0954 -0.0271  0.1458
23321W        W26919  12.460   7.673   4.976 -0.0094  0.1959 -0.0851
23322W        W26920   3.264   6.611   8.818 -0.2815 -0.0563  0.0641
23323W        W26921   7.353  10.214   4.972 -0.3434  0.1390  0.2031
23324W        W26922   0.243   8.410   7.196 -0.2302 -0.1243  0.0721
23325W        W26923   4.367   8.279   3.021 -0.1673  0.1189  0.0248
23326W        W26924   2.660  16.251   1.665 -0.0602 -0.1764 -0.0901
23327W        W26925   0.148   0.887  14.552 -0.1057 -0.1690  0.0139
23328W        W26926   5.611   0.611   6.778  0.3908 -0.1606  0.0211
23329W        W26927   8.264   8.399  15.073  0.2127 -0.3930 -0.5413
23330W        W26928   7.598   7.213  10.136  0.2021  0.1906  0.1399
23331W        W26929   4.160   7.749  13.727  0.1676 -0.0858 -0.0009
23332W        W26930   0.784  11.466   2.663 -0.0334 -0.4233 -0.2581
23333W        W26931  11.637   7.742  14.680 -0.1498  0.2487  0.1496
23334W        W26932  11.440   1.339  12.664 -0.3183  0.1656 -0.0774
23335W        W26933  13.326   3.152   1.928  0.0404 -0.1745  0.0300
23336W        W26934   6.027  11.402   9.760 -0.3500  0.2530 -0.2530
23337W        W26935   7.112   5.257   4.099 -0.0346  0.1970 -0.0532
23338W        W26936   1.847   6.985   9.218 -0.0546  0.4617 -0.3093
23339W        W26937   1.543  14.707   5.594  0.0514  0.2029 -0.0352
23340W        W26938  14.745  13.766  10.177  0.0371  0.1965  0.0092
23341W        W26939   6.004   9.388  12.343 -0.1504  0.3048 -0.1325
23342W        W26940  14.184   0.385   4.237  0.2147 -0.0904  0.0716
23343W        W26941  13.968  16.299   6.020  0.1387  0.2777  0.3371
23344W        W26942   0.975   9.103   2.123  0.0950 -0.0825 -0.2362
23345W        W26943   6.941   1.501   3.396 -0.0970  0.1852  0.2511
23346W        W26944  11.697  10.530   9.172  0.0244  0.1998 -0.3806
23347W        W26945  14.686  14.777   1.919 -0.2391  0.0389 -0.0615
23348W        W26946   4.879  14.928  14.762 -0.1965 -0.2662  0.3599
23349W        W26947  12.272   0.616   2.721 -0.0057  0.2080 -0.0867
23350W        W26948   1.321   0.402  13.118 -0.0861  0.0274 -0.2120
23351W        W26949   8.573   8.456   5.339 -0.1278  0.1346 -0.3297
23352W        W26950  11.743   9.458   1.951  0.1033 -0.2317 -0.2323
23353W        W26951   0.344   8.268   6.195  0.2201  0.0544  0.0190
23354W        W26952  12.178   9.048   5.880  0.3437 -0.2936  0.1271
23355W        W26953  11.742   1.412   6.718 -0.0985  0.0286  0.0489
23356W        W26954   1.365  12.415  13.347 -0.3204  0.0767  0.1619
23357W        W26955  12.343   7.220  10.683 -0.0074 -0.1104  0.1276
23358W        W26956   5.033   8.381  14.511  0.0482  0.1044  0.0328
23359W        W26957   3.757  14.523  15.678 -0.0537  0.0353 -0.0268
23360W        W26958  15.122   6.236   2.855 -0.1005  0.1430  0.0567
23361W        W26959   1.334   0.596   0.408 -0.0180  0.1740 -0.0243
23362W        W26960  13.862  12.236   7.251  0.0309  0.2161  0.1878
23363W        W26961  12.251   5.946  10.650 -0.0902 -0.0811 -0.3193
23364W        W26962   0.597  15.610  16.203 -0.0531  0.1126 -0.6364
23365W        W26963   4.375   0.050  13.642 -0.1947  0.0465  0.1613
23366W        W26964   3.260   2.413   5.574  0.1495  0.0489  0.0151
23367W        W26965   7.787  14.721   9.270  0.1022 -0.1645 -0.2636
23368W        W26966  12.709  11.815  12.689  0.2703 -0.2018  0.1342
23369W        W26967   0.879   5.551   8.773  0.4007 -0.0352  0.0010
23370W        W26968   1.244   4.582   2.688  0.1164  0.0425 -0.2726
23371W        W26969  13.014   5.624   0.978  0.1617 -0.0064  0.1335
23372W        W26970  11.078  11.205   4.879  0.3097 -0.1009  0.0472
23373W        W26971   8.887  10.273   4.223  0.1071 -0.1461  0.0244
23374W        W26972   9.785   8.085   9.608  0.1237 -0.1518  0.1127
23375W        W26973   2.146  10.623   8.091  0.1612  0.1435  0.0730
23376W        W26974   1.547  15.595   0.041 -0.0089 -0.3250  0.2252
23377W        W26975  13.067   7.967   5.810 -0.0190  0.0035 -0.0360
23378W        W26976  15.264  12.113  13.222 -0.1728  0.0210 -0.1187
23379W        W26977   4.391   8.144   7.467  0.2685  0.0054  0.3153
23380W        W26978  10.781  14.288  14.059 -0.0830  0.2547 -0.1104
23381W        W26979  12.379   3.683   6.426  0.0031 -0.2467  0.0989
23382W        W26980   2.245   7.410   6.054 -0.2916  0.1277  0.0778
23383W        W26981  16.133  15.092   0.225  0.2020  0.1671  0.0389
23384W        W26982  11.572  15.887   4.623 -0.2644 -0.1581  0.0029
23385W        W26983   3.468   7.798  15.673  0.0879 -0.1192  0.2243
23386W        W26984  13.127   8.865  12.055  0.1967 -0.4720  0.3673
23387W        W26985  15.099   4.033   3.743  0.0959  0.0271  0.0780
23388W        W26986  12.641  12.482   0.258  0.0602 -0.1895  0.0833
23389W        W26987   7.875  12.338  14.751 -0.2084 -0.1639 -0.2991
23390W        W26988  15.034  10.595  15.634  0.0564 -0.0608 -0.2225
23391W        W26989   4.596   8.722  11.737 -0.3681  0.0181  0.0004
23392W        W26990  11.774   9.652   3.488  0.0513 -0.2149  0.0867
23393W        W26991   5.588  15.444  14.999  0.1736  0.0561  0.0728
23394W        W26992   3.674   1.449   7.812 -0.3635  0.1040  0.0544
23395W        W26993  16.080   5.870  11.559  0.2499  0.1628 -0.2326
23396W        W26994  11.717   7.862   8.130  0.2860 -0.1192 -0.1988
23397W        W26995   3.556   0.467  12.864  0.0129 -0.0038  0.3980
23398W        W26996   3.868   3.899   5.825 -0.1446  0.2401 -0.3747
23399W        W26997  15.800   4.413   3.162 -0.0028  0.0692  0.3560
23400W        W26998   3.161   0.042  14.894 -0.0465  0.0617  0.1079
23401W        W26999   3.913  15.629  14.526  0.2052 -0.0262  0.2952
23402W        W27000   5.340   3.120   1.440  0.1377 -0.0131 -0.1196
23403W        W27001   1.890   6.474   8.194  0.0264  0.0012  0.0401
23404W        W27002  14.389  12.761  15.835  0.2804 -0.1223 -0.2058
23405W        W27003   7.598   8.667  13.716  0.4050  0.0062 -0.0872
23406W        W27004  11.940   3.365   8.685  0.0412  0.1094  0.4155
23407W        W27005   1.515   9.624   4.916 -0.2370 -0.1355 -0.1338
23408W        W27006  13.981   0.658   0.822 -0.1485  0.3959  0.0349
23409W        W27007  10.544   4.862   3.411  0.1863  0.0737 -0.2447
23410W        W27008   8.845  10.568  10.055 -0.0595  0.0071  0.0503
23411W        W27009   9.851   3.064  12.994  0.3660  0.1165  0.1022
23412W        W27010  15.305  14.580  10.000  0.1156 -0.0983 -0.0295
23413W        W27011   0.268   1.498   9.079 -0.0924  0.0969  0.1346
23414W        W27012   4.518   0.672   9.919  0.2883  0.0743  0.0448
23415W        W27013   6.865   0.084  16.068  0.4336  0.1308 -0.1487
23416W        W27014   8.458  14.862  13.866 -0.2709 -0.2952  0.0321
23417W        W27015   2.903   4.847   9.991  0.0859 -0.1029  0.2454
23418W        W27016   0.546   1.330  13.538 -0.0833 -0.3597  0.0557
23419W        W27017   8.409   3.941   9.809  0.2875  0.1942  0.3475
23420W        W27018   0.255  15.435  15.816 -0.1482  0.1474 -0.0101
23421W        W27019   9.527  12.546  15.966  0.1187 -0.3272 -0.1150
23422W        W27020  14.260  15.393   9.828  0.0193  0.0553  0.0930
23423W        W27021  13.824   9.107   8.385  0.0543 -0.0532  0.0011
23424W        W27022   2.815   5.518   4.687 -0.2680  0.0170 -0.0226
23425W        W27023   7.931  10.170   8.634 -0.1316 -0.2387  0.0814
23426W        W27024   0.177   7.836   4.532  0.0537 -0.1205  0.0932
23427W        W27025   8.745   9.016   3.623 -0.0282 -0.2591 -0.0641
23428W        W27026  14.738   9.117  16.183  0.1418 -0.1822 -0.1158
23429W        W27027   8.702   2.688  13.615  0.4031  0.1540  0.0402
23430W        W27028  12.032   9.122   8.963  0.0506 -0.0541  0.3279
23431W        W27029   4.598   9.836  12.842 -0.1628  0.1578  0.0455
23432W        W27030  10.698   3.103  14.551  0.1826  0.0861 -0.1722
23433W        W27031   5.712   0.365  15.801 -0.0232 -0.0531  0.1496
23434W        W27032  10.266  10.499  13.570 -0.0136  0.1791 -0.0926
23435W        W27033   4.094   7.965  12.762  0.1556 -0.2546 -0.4876
23436W        W27034   4.867  11.070  15.604  0.0528  0.1379 -0.1826
23437W        W27035  11.307  14.255   8.645 -0.2346 -0.1917 -0.0662
23438W        W27036  13.019   5.427   3.553  0.1378 -0.1138  0.0959
23439W        W27037   7.823   8.500   1.657  0.0230  0.1011 -0.2959
23440W        W27038   8.210   7.723   8.911  0.2528  0.5039 -0.3320
23441W        W27039   2.316  13.266   4.933  0.0755 -0.1032  0.1530
23442W        W27040  11.106   5.502   0.054  0.1400 -0.0239 -0.0120
23443W        W27041  15.505  14.667  12.861 -0.2146  0.2193 -0.0433
23444W        W27042   1.884  10.173   9.764 -0.0162 -0.3489  0.2094
23445W        W27043  12.947   8.044  13.503  0.1489 -0.4419 -0.0535
23446W        W27044  12.080   7.897   8.900  0.0627  0.3452  0.1044
23447W        W27045  12.690   0.219   8.472  0.0818 -0.4181 -0.0990
23448W        W27046   8.649  12.729   8.494 -0.3334  0.1120  0.3041
23449W        W27047  12.338  11.553   3.929  0.1115 -0.1941  0.4248
23450W        W27048   5.473   4.893   8.777 -0.2235  0.0002 -0.1924
23451W        W27049  11.843   6.315  12.995 -0.1153 -0.2260 -0.3053
23452W        W27050  10.481   0.831   0.718  0.0758  0.2184 -0.3084
23453W        W27051  15.388   5.544   6.494  0.0279  0.0789  0.0239
23454W        W27052   3.961   8.152  13.458  0.0944 -0.2926 -0.2444
23455W        W27053  15.517   4.349  16.199 -0.2107 -0.0982  0.4898
23456W        W27054   8.460  14.906   7.306  0.1140  0.1021 -0.1597
23457W        W27055  15.533  14.454  11.395  0.0703  0.1793  0.1619
23458W        W27056  11.111   4.541   0.154  0.0146 -0.0002  0.1824
23459W        W27057   4.381   2.688   8.044  0.1442  0.4258 -0.4224
23460W        W27058  10.871   5.841   0.360  0.0199 -0.2589  0.2670
23461W        W27059   3.251  13.861   3.792 -0.1171  0.0160 -0.0645
23462W        W27060   7.459  11.042  15.676  0.1383 -0.1554 -0.5155
23463W        W27061   5.065  15.434  15.155  0.0688 -0.0446  0.1375
23464W        W27062   6.628  13.917  12.178  0.0214 -0.0664  0.0176
23465W        W27063   8.561   9.202   4.055 -0.2294  0.0059  0.2079
23466W        W27064   8.813  10.108  16.317  0.1891 -0.2151 -0.0502
23467W        W27065  11.675   9.283   3.727  0.0786 -0.0146  0.0076
23468W        W27066  15.728  16.209  14.701  0.0463 -0.0922  0.0843
23469W        W27067  12.110  12.978   4.976 -0.1735 -0.1330  0.0964
23470W        W27068   0.227   3.130  13.576  0.1339 -0.3287  0.0493
23471W        W27069  13.583   3.248  14.087 -0.0915 -0.2261  0.0270
23472W        W27070   8.812   9.277  13.059  0.1421 -0.1371 -0.1227
23473W        W27071   2.527   3.287  16.332 -0.0135 -0.0397  0.4575
23474W        W27072   3.164  10.220  13.321  0.0656 -0.2681  0.2780
23475W        W27073   4.353   3.024   0.789  0.0139 -0.0671  0.0966
23476W        W27074   2.160  10.499  11.737  0.0584  0.1629  0.0180
23477W        W27075  15.265   4.251   3.329 -0.3944  0.0226 -0.0462
23478W        W27076  12.032  14.449   5.572  0.0318  0.2168  0.2045
23479W        W27077  12.034   0.833  10.399 -0.0031  0.2613  0.2158
23480W        W27078  10.040  10.795   0.303  0.1095  0.2876 -0.1186
23481W        W27079   2.082  14.187   4.467 -0.0025 -0.0605 -0.4000
23482W        W27080  12.306   5.313  15.189 -0.0689  0.0295  0.0870
23483W        W27081  11.788   8.253   5.568  0.1231 -0.1554 -0.0261
23484W        W27082   2.147   9.187   8.706  0.0261 -0.0180 -0.0068
23485W        W27083  11.479   2.029  11.216 -0.2618 -0.2295 -0.3185
23486W        W27084  14.830  10.290  15.970  0.0948  0.0770 -0.0416
23487W        W27085   7.073  13.728  14.093 -0.5202  0.2450 -0.2683
23488W        W27086  12.504  10.255  16.223  0.0568  0.1116 -0.0688
23489W        W27087  12.912   7.012   8.030 -0.3769 -0.2861  0.1312
23490W        W27088  15.756  12.377   9.794 -0.0869 -0.4616  0.0810
23491W        W27089   4.961  14.370  12.800 -0.0622  0.2699 -0.1427
23492W        W27090   4.036   1.672   3.553 -0.1444 -0.0487  0.1803
23493W        W27091  13.598   4.219   5.233 -0.3909 -0.3294  0.1810
23494W        W27092   4.929  13.705  11.785 -0.3548 -0.2209  0.2052
23495W        W27093   0.267   0.075  10.252 -0.0276 -0.1457 -0.3417
23496W        W27094  13.452   8.802  11.418  0.0613  0.0951 -0.0734
23497W        W27095   6.023   1.115   4.230  0.0676 -0.2526 -0.3300
23498W        W27096  12.507   3.422  15.361 -0.1069  0.0407 -0.2645
23499W        W27097  14.559  10.549   0.989 -0.1504 -0.0590 -0.0773
23500W        W27098  11.326  14.853   5.097 -0.4019  0.1641  0.0051
23501W        W27099   3.907   4.030  12.858 -0.0860  0.0971 -0.4469
23502W        W27100  14.209  10.940   1.324 -0.0603 -0.0509 -0.0839
23503W        W27101  12.340   9.278  14.132 -0.0717 -0.4204 -0.1643
23504W        W27102   8.035  11.187   3.149  0.5298  0.3137 -0.0145
23505W        W27103   5.912   8.040   8.082 -0.1172  0.2188 -0.3843
23506W        W27104   9.466   4.660  14.429 -0.1445  0.0993 -0.1193
23507W        W27105   4.283   8.372   1.974 -0.3074  0.0847  0.2392
23508W        W27106  11.618   8.735   2.379 -0.2720  0.1234 -0.0049
23509W        W27107   8.096   9.385   8.258  0.1480 -0.0188 -0.0627
23510W        W27108  10.947  11.412   1.242  0.4086  0.1966 -0.0971
23511W        W27109   0.318   8.032  12.975 -0.1182 -0.0095  0.0028
23512W        W27110   6.890  12.061  13.516  0.2620 -0.1638  0.2362
23513W        W27111  11.327  14.958  16.026  0.2066 -0.1745  0.3980
23514W        W27112  13.514  11.031  13.258  0.3906 -0.1513 -0.0580
23515W        W27113   4.392   4.123   1.007  0.1275  0.1149 -0.3115
23516W        W27114   4.510   8.766   3.250 -0.0440 -0.2196 -0.1367
23517W        W27115   5.092   8.326   9.963 -0.2075 -0.1497 -0.1454
23518W        W27116   6.207   9.208   7.876  0.2344  0.1887  0.4346
23519W        W27117  16.143   1.509   1.612  0.0172 -0.0905 -0.2885
23520W        W27118  15.390   4.577  11.734  0.3396  0.0542 -0.2128
23521W        W27119  10.015  15.882   8.585  0.0362  0.0185  0.3989
23522W        W27120  13.182   1.641  12.543  0.2803 -0.0455 -0.0805
23523W        W27121   9.379   2.906   2.005  0.1078  0.0695  0.2466
23524W        W27122   8.532  15.131  14.931 -0.1252 -0.1829  0.0315
23525W        W27123  13.885  15.629  16.185  0.2072  0.1574 -0.1346
23526W        W27124   5.449  12.499  12.124 -0.0232  0.0804  0.2242
23527W        W27125   7.547  13.987   4.488  0.0010  0.1689 -0.1502
23528W        W27126   7.935   1.557   9.277 -0.0050 -0.1378  0.0157
23529W        W27127  10.118   3.911   5.500 -0.1951 -0.1673  0.3922
23530W        W27128  16.270   7.852   9.094 -0.0926  0.1406  0.1069
23531W        W27129   8.611   5.607   7.470 -0.1342  0.1831  0.1437
23532W        W27130  15.170   6.527  14.801  0.1955  0.0009 -0.3139
23533W        W27131   8.751  11.560   1.663 -0.1448 -0.4338  0.0258
23534W        W27132  13.910  12.131   6.098  0.1065 -0.0459  0.1263
23535W        W27133   5.317   4.300   4.845  0.0623 -0.1786  0.1922
23536W        W27134   4.730  10.847   7.334 -0.0293 -0.1009 -0.1331
23537W        W27135  15.147   4.930   9.174  0.1400 -0.3123 -0.0018
23538W        W27136  10.030   3.624   3.124  0.2471  0.0936 -0.1531
23539W        W27137   1.947   0.070  13.618 -0.0030  0.2546  0.1486
23540W        W27138   2.395   9.254   5.345  0.1857  0.4125  0.2571
23541W        W27139   7.917   3.696  16.180  0.2896 -0.0650 -0.1791
23542W        W27140   1.688   0.127   6.121 -0.1082  0.1659 -0.0496
23543W        W27141   2.476  11.714   9.465 -0.3620 -0.0684  0.2057
23544W        W27142   5.574  15.607   9.532  0.4496  0.3991  0.3021
23545W        W27143   2.660   8.408  13.995 -0.1519  0.2306  0.2296
23546W        W27144   8.544  11.006  12.474  0.0387 -0.0905  0.0375
23547W        W27145   6.451   6.134   8.188  0.2044  0.1412  0.0515
23548W        W27146   0.981  11.618   8.847  0.2246 -0.1072 -0.0350
23549W        W27147  16.086   5.152   5.809 -0.0671  0.2712 -0.1160
23550W        W27148  10.975   1.910   9.533  0.0635  0.0666  0.0594
23551W        W27149   5.531   4.345   0.903 -0.1254  0.1113  0.1390
23552W        W27150  11.465   5.638   6.475 -0.1005  0.0058 -0.0188
23553W        W27151   7.603   1.397  14.869  0.1045  0.2435  0.0624
23554W        W27152  12.981  16.359  14.616 -0.0784 -0.3626 -0.2514
23555W        W27153   2.611   1.228   8.304 -0.0899  0.0651  0.3182
23556W        W27154   0.888  10.940  15.215  0.3372 -0.0856  0.0185
23557W        W27155   0.316   4.737   0.321 -0.1106 -0.0614  0.0723
23558W        W27156   1.476   3.167   5.785 -0.2287  0.2640  0.2701
23559W        W27157   1.310  11.770   6.228 -0.2524 -0.0570 -0.0269
23560W        W27158   0.529  15.620   0.333  0.0424  0.2015 -0.1267
23561W        W27159   6.512   1.337  11.346 -0.1187  0.1093  0.0796
23562W        W27160  16.171   1.633  10.360  0.2100 -0.1208  0.0390
23563W        W27161   8.443  11.572  14.449 -0.0111  0.1337  0.2302
23564W        W27162   5.920   2.359   2.993  0.0431 -0.0108 -0.0916
23565W        W27163  10.962   1.739  11.830 -0.1072 -0.2591 -0.1040
23566W        W27164  13.564  15.368   2.638  0.1535  0.2995  0.7279
23567W        W27165   6.489   1.901  16.180  0.3263 -0.0927  0.1158
23568W        W27166  14.044   3.095  15.235 -0.1408 -0.2843 -0.2007
23569W        W27167  15.129  15.737  11.943 -0.0833 -0.0778  0.0349
23570W        W27168  10.642   4.231  10.743 -0.1536  0.1582  0.0203
23571W        W27169  13.433   5.416  13.222  0.3661  0.2375  0.0258
23572W        W27170  16.266   5.261   7.442 -0.0698 -0.1018  0.0828
23573W        W27171   2.892  13.773   0.545 -0.2474 -0.0486  0.0896
23574W        W27172   8.921   2.714   3.373  0.1217  0.1074  0.1146
23575W        W27173  16.283   9.306  15.558  0.3029 -0.3086  0.0320
23576W        W27174  12.184   5.477   1.557  0.0595  0.0962 -0.2408
23577W        W27175   6.296  11.308  12.506  0.1610 -0.0630 -0.1453
23578W        W27176  12.384   7.255   7.452  0.1123 -0.1608 -0.0463
23579W        W27177  12.736  11.388  15.620  0.0633 -0.1271  0.2151
23580W        W27178   8.754   2.847   9.960  0.2140  0.0151 -0.1227
23581W        W27179   4.654   5.224   4.449 -0.1933  0.2746 -0.2271
23582W        W27180   0.896   1.332   7.396 -0.1867  0.0479  0.2636
23583W        W27181  14.264  14.215   3.964  0.0641 -0.0255 -0.3260
23584W        W27182   4.429  14.862   7.381  0.2996  0.1050 -0.0004
23585W        W27183   7.393   4.090  10.265 -0.1428 -0.1410 -0.1757
23586W        W27184   0.858   9.879  10.143 -0.0241 -0.0262  0.0450
23587W        W27185  15.013  13.813   7.380  0.1850  0.3247 -0.0738
23588W        W27186   4.180   8.272  14.652  0.0231  0.0694 -0.1321
23589W        W27187   4.247   3.497  14.624  0.0219 -0.1113 -0.0382
23590W        W27188   2.417  11.682   7.974  0.2421 -0.1325 -0.5502
23591W        W27189  14.684  13.929   9.482 -0.0445 -0.0044  0.2892
23592W        W27190   6.782  13.963  11.462  0.2650 -0.2815  0.1859
23593W        W27191   3.441  14.406   1.029  0.0999  0.3488  0.1330
23594W        W27192  10.450   6.150   2.419  0.1398 -0.1338 -0.0876
23595W        W27193   8.441   6.941   6.762  0.0168  0.1459 -0.1555
23596W        W27194   9.931   3.458   8.817 -0.2063 -0.2108  0.4058
23597W        W27195  10.610   9.317   6.616 -0.0964  0.0417  0.0181
23598W        W27196   4.676   7.965   5.755 -0.2837 -0.0561  0.1899
23599W        W27197   1.211  15.680  12.249 -0.0299  0.0477  0.1361
23600W        W27198   4.540   0.633   1.856 -0.0196 -0.0726  0.0771
23601W        W27199   1.639   9.362  14.513 -0.3284 -0.1405 -0.1865
23602W        W27200  16.363  12.917  10.108  0.2080 -0.1356  0.1466
23603W        W27201  11.206   1.741   1.466 -0.0585 -0.3592  0.0287
23604W        W27202   0.733  11.645  12.428  0.0649  0.1060 -0.0675
23605W        W27203   0.163  12.767   8.517  0.1801 -0.1330  0.0535
23606W        W27204   7.719   2.061   7.760 -0.1080 -0.2472  0.0322
23607W        W27205  11.568   5.217   7.681 -0.1840  0.2449 -0.1863
23608W        W27206   4.700  16.254   9.875 -0.0812 -0.1450  0.1945
23609W        W27207   5.665   4.630   6.872 -0.2225 -0.1448  0.1951
23610W        W27208   2.641  12.522   3.882 -0.1941  0.2822  0.0580
23611W        W27209  14.013   0.986   8.697 -0.1096 -0.1580  0.2027
23612W        W27210  12.035   0.554   8.961  0.4086 -0.2379 -0.1178
23613W        W27211  13.447   9.094   0.092 -0.0357 -0.1964  0.2162
23614W        W27212  10.810   3.759   8.566  0.0301  0.1115 -0.1370
23615W        W27213  10.303   9.412   8.586  0.1579 -0.1337 -0.1877
23616W        W27214  12.971  14.223   7.969 -0.1622  0.0925  0.1594
23617W        W27215   2.756   1.168   2.563 -0.1965 -0.1409 -0.1590
23618W        W27216  12.124   4.408  12.249 -0.0657 -0.3679  0.1828
23619W        W27217   9.470   6.681   8.843  0.2781  0.1851  0.2164
23620W        W27218  15.314   0.207  14.974 -0.1850  0.0470  0.1443
23621W        W27219   3.661  13.586   3.674 -0.4225  0.0524  0.2581
23622W        W27220   4.270  14.882   5.538  0.1886 -0.0929 -0.1605
23623W        W27221  11.893   1.617  13.910  0.3927 -0.0961  0.0850
23624W        W27222   3.498   3.030   3.588 -0.3881  0.0388 -0.2614
23625W        W27223   7.765   6.468   8.279  0.0402 -0.0774  0.0990
23626W        W27224   6.593  11.159   5.378  0.0858 -0.0599  0.1524
23627W        W27225  15.119   0.008  13.178  0.0314  0.1650  0.3579
23628W        W27226  12.249  11.164  10.743  0.0681  0.1378 -0.2737
23629W        W27227   7.916   3.098  15.510 -0.0906  0.0710  0.1869
23630W        W27228   8.102  14.405  14.362 -0.2469 -0.0789  0.1219
23631W        W27229  14.252  12.786  15.329  0.0894 -0.0284 -0.1861
23632W        W27230   9.447   3.328  13.170 -0.2997  0.0010  0.2702
23633W        W27231  11.698  13.687   1.013 -0.0329  0.1650  0.0048
23634W        W27232   0.915   9.679   0.742 -0.6219 -0.0306  0.0802
23635W        W27233   0.316   4.687  11.621 -0.1176 -0.0637 -0.3296
23636W        W27234  12.096   6.822   9.283 -0.2039  0.1237  0.1457
23637W        W27235   2.132  12.830  16.249  0.0846 -0.3706 -0.0532
23638W        W27236   1.402   3.207   8.930  0.2036  0.1154 -0.2862
23639W        W27237  11.020  13.835   5.366 -0.0177 -0.4997 -0.1794
23640W        W27238   7.366   6.489   5.383  0.1180  0.2666  0.0545
23641W        W27239  12.841   6.848   6.700  0.0116 -0.0816 -0.2496
23642W        W27240  10.017   5.525   2.125  0.0012 -0.0259  0.0260
23643W        W27241   6.826   5.315  10.149 -0.2114 -0.0674 -0.0024
23644W        W27242   0.545   1.996   6.060  0.1231 -0.4049  0.5064
23645W        W27243   1.583  11.604  12.757  0.0716 -0.1532 -0.2981
23646W        W27244   7.603   1.868  13.461 -0.0540  0.1074 -0.2056
23647W        W27245   7.098   4.891  15.279  0.1158 -0.1270  0.2617
23648W        W27246   1.782  15.036   2.170 -0.2197  0.2661 -0.1257
23649W        W27247  13.553   3.938   6.289 -0.0724  0.0677  0.0970
23650W        W27248   3.720  11.084  15.784 -0.0048 -0.1762 -0.2340
23651W        W27249  15.667   9.817   1.547 -0.0870  0.3281  0.0666
23652W        W27250   6.979  13.212   6.735 -0.3249  0.0213  0.1645
23653W        W27251  10.427   5.216   1.240 -0.5364  0.0578 -0.0449
23654W        W27252   0.856   4.668   0.312 -0.2425 -0.1212 -0.2951
23655W        W27253  14.292  14.243   9.155 -0.2668  0.0989  0.0382
23656W        W27254   7.690   4.221   8.014  0.1980 -0.1025 -0.2089
23657W        W27255   0.547   9.700   7.830 -0.0391 -0.0603 -0.2824
23658W        W27256   9.578  10.919   2.814  0.0846  0.0840 -0.4007
23659W        W27257   7.536   6.314  15.888  0.0325 -0.0571 -0.0405
23660W        W27258  16.179   0.950   5.847 -0.2402 -0.0483 -0.3419
23661W        W27259   3.320  10.338  15.247 -0.0948  0.1509  0.0726
23662W        W27260   3.124   0.106   6.232  0.1214  0.1728 -0.2561
23663W        W27261  10.658   3.438   1.281  0.1743 -0.0646 -0.0943
23664W        W27262  15.910   5.206   1.425  0.5089  0.0043 -0.2152
23665W        W27263  10.112   7.752  12.659 -0.1896 -0.1518 -0.1686
23666W        W27264  16.187  11.951  14.163 -0.0955  0.0018 -0.1537
23667W        W27265   9.984   1.912  13.273  0.1224 -0.0762 -0.1030
23668W        W27266   7.068   0.992  13.433 -0.2298  0.2197 -0.1396
23669W        W27267   1.435   8.794   3.112 -0.0277  0.2769  0.1426
23670W        W27268   2.415  11.461   1.146 -0.1492 -0.2438 -0.0026
23671W        W27269  11.860   4.715   8.510 -0.4253  0.1307 -0.1300
23672W        W27270  12.263  15.670   0.032 -0.0441  0.0737  0.1515
23673W        W27271   5.443   9.777   6.572 -0.2272  0.0184  0.1050
23674W        W27272  15.225   3.523   7.069  0.1169  0.0435  0.4725
23675W        W27273  12.668  13.509  12.670 -0.0934 -0.1520 -0.1357
23676W        W27274  10.471   2.172   5.229 -0.0795 -0.1430  0.0577
23677W        W27275  14.525   9.367  15.598 -0.2848  0.2086 -0.0359
23678W        W27276   7.731   3.684  15.126  0.0631  0.0753 -0.1630
23679W        W27277  12.895  11.864   8.791  0.4067  0.0863 -0.3492
23680W        W27278   7.713  11.864   4.095  0.1273 -0.0963 -0.0964
23681W        W27279   9.252  15.484   1.092  0.0988 -0.2725 -0.1732
23682W        W27280   6.105   6.680   5.812 -0.2933 -0.0515 -0.0681
23683W        W27281   7.585   6.047   3.135 -0.0770 -0.1847 -0.0002
23684W        W27282   2.620  15.127   9.010 -0.3251 -0.0893 -0.1370
23685W        W27283   5.922   2.345   1.433  0.2376  0.0619  0.0187
23686W        W27284  10.387  12.563  16.319  0.1801 -0.0650  0.1362
23687W        W27285  10.958   9.379  12.704 -0.1527 -0.1131 -0.0946
23688W        W27286   6.147   5.250   0.201  0.1249 -0.2106  0.0571
23689W        W27287   7.796   5.844   1.144 -0.0494  0.2273 -0.2697
23690W        W27288   5.167   4.957  10.801  0.2467 -0.1352  0.3511
23691W        W27289  10.697   1.193   8.252  0.0065 -0.0436  0.1371
23692W        W27290  12.213   4.395  13.002  0.3219  0.1727  0.1736
23693W        W27291   9.360   0.744  10.923  0.0565  0.1143 -0.2212
23694W        W27292   2.097   9.181  10.594 -0.1727 -0.0455 -0.0128
23695W        W27293   6.601   5.023  13.682 -0.1289 -0.0520 -0.2220
23696W        W27294   5.756   6.170  12.435  0.2456  0.1162 -0.0278
23697W        W27295   9.269  12.478  11.605 -0.2324 -0.2697  0.1923
23698W        W27296  11.476   9.092   0.805  0.3264  0.2135  0.1473
23699W        W27297   1.832   8.366   0.650  0.0967  0.0338  0.4977
23700W        W27298  13.071  11.267  14.428 -0.2355 -0.0649 -0.0563
23701W        W27299  12.080   1.293   7.090  0.0007  0.5629  0.1653
23702W        W27300   4.972   0.780  13.670  0.1360 -0.1836  0.0430
23703W        W27301   7.747   3.204   6.970  0.2103  0.0624 -0.1419
23704W        W27302   9.583   7.087  14.634 -0.1014  0.4528  0.1268
23705W        W27303   9.774   6.012  15.421  0.1204 -0.0412  0.0036
23706W        W27304   2.304   9.771  12.492  0.0414 -0.1486  0.1386
23707W        W27305   0.807   0.642  10.939  0.1008 -0.0029 -0.0385
23708W        W27306  16.230   0.940   9.394 -0.2366  0.1041 -0.3387
23709W        W27307   4.327   9.475   2.863  0.1028  0.1744  0.0266
23710W        W27308  15.726   2.098   4.661 -0.2865  0.3461 -0.1056
23711W        W27309  13.498  14.964   9.710 -0.2775 -0.0339 -0.3344
23712W        W27310  11.672   0.454   6.742  0.1424 -0.0982  0.1029
23713W        W27311  13.674  13.212  13.478  0.0033  0.0949 -0.1876
23714W        W27312   1.619   5.707   5.232  0.1664  0.0539  0.0680
23715W        W27313  14.140  10.494   8.390  0.2545 -0.1618  0.1414
23716W        W27314  12.146   3.774   8.482  0.2333  0.2361 -0.0650
23717W        W27315   8.127   0.831   4.883 -0.0929  0.0716 -0.1921
23718W        W27316  15.197  16.282   2.920  0.1819  0.0452 -0.0548
23719W        W27317   5.918   1.545   3.371 -0.0649  0.1850  0.3772
23720W        W27318  12.530  11.539  10.789 -0.0908 -0.1514 -0.1365
23721W        W27319  14.531   8.153   3.249 -0.1339  0.1210 -0.0845
23722W        W27320  12.012   5.546   2.759 -0.1096 -0.1192 -0.3844
23723W        W27321   4.217   6.265   0.762  0.0617  0.0004  0.2594
23724W        W27322   9.422  11.406   0.970 -0.0596 -0.1826 -0.1575
23725W        W27323  13.068   0.089   2.784 -0.2122  0.1191  0.1612
23726W        W27324  11.725   0.599   1.351 -0.0383  0.4537  0.4302
23727W        W27325  15.561   3.826  12.299  0.4154  0.0351 -0.0440
23728W        W27326   0.276   9.325   1.304  0.0459  0.2050  0.3435
23729W        W27327   8.835  12.287  11.531  0.2320 -0.1767 -0.2654
23730W        W27328   4.326  12.981  14.603  0.0557 -0.0986 -0.2111
23731W        W27329   5.943   7.332  11.388  0.1355  0.1311 -0.2286
23732W        W27330  16.174  11.776  12.230  0.5172  0.0558 -0.2406
23733W        W27331   9.068   2.202  16.011 -0.0888  0.1852 -0.1934
23734W        W27332   5.243  12.372  14.409  0.1559 -0.2361 -0.2816
23735W        W27333  12.108   1.483   1.286  0.2138  0.5823 -0.2323
23736W        W27334   0.281   0.033   6.653 -0.2546 -0.1412 -0.1067
23737W        W27335   5.526   6.021   6.749  0.4882  0.1411 -0.1837
23738W        W27336   8.724   0.790   5.318  0.1891 -0.0033  0.2109
23739W        W27337   6.846   7.633   2.971  0.1882  0.1463  0.0414
23740W        W27338  11.213   4.161   8.529  0.0248 -0.2342  0.0762
23741W        W27339   4.687   7.870   1.123  0.1066  0.1377 -0.1488
23742W        W27340   1.431  11.555   2.012  0.0464 -0.0104 -0.0961
23743W        W27341  10.265  13.505   7.598 -0.0534 -0.2699  0.0807
23744W        W27342   6.892   3.109   6.626  0.3654  0.0152 -0.1683
23745W        W27343  14.850   0.112  14.321  0.1978 -0.0855 -0.0072
23746W        W27344  14.669   0.691   4.273 -0.1920  0.0605 -0.3196
23747W        W27345   9.940  14.087  10.744 -0.0300 -0.1770  0.1387
23748W        W27346   0.201   0.076   2.880 -0.1751  0.2605  0.0800
23749W        W27347   0.722   6.008   5.667  0.0428 -0.2087 -0.1453
23750W        W27348   3.356  13.663  15.341 -0.1803  0.1355 -0.1525
23751W        W27349   0.791   9.518   6.968  0.1735 -0.1331  0.0935
23752W        W27350   7.081  13.168  10.893  0.0618  0.1239  0.1802
23753W        W27351   8.959  15.614   2.983 -0.1695  0.1159  0.1168
23754W        W27352   8.882  16.137  11.556 -0.3668 -0.0472 -0.2444
23755W        W27353  13.731   1.234   2.779  0.0881 -0.0326 -0.0102
23756W        W27354   2.234   6.931  12.542 -0.0394  0.1508 -0.2040
23757W        W27355   3.296   2.467  15.560  0.1968 -0.1842 -0.0302
23758W        W27356   1.273   9.399  15.587  0.2873  0.0270  0.0691
23759W        W27357   3.295   2.058  11.126  0.4650  0.1109  0.0076
23760W        W27358   9.001  15.236  10.728  0.0573 -0.2859  0.0729
23761W        W27359   2.099   8.614   6.790 -0.2399 -0.1689  0.1347
23762W        W27360  14.269   2.506   0.669 -0.0272  0.1348  0.0745
23763W        W27361   7.946  15.189   5.839  0.1382  0.0599  0.0766
23764W        W27362   5.256  15.145   4.599  0.1104  0.4940 -0.0389
23765W        W27363  12.191   7.679  10.741 -0.1210  0.1701 -0.2078
23766W        W27364   6.798   6.614   4.096 -0.1955 -0.2027 -0.0820
23767W        W27365   3.714   8.508  14.691 -0.0924 -0.0693 -0.3299
23768W        W27366  16.190   0.877   5.107  0.3642 -0.1286  0.1105
23769W        W27367   2.780   6.178   1.618  0.0814  0.0607  0.2252
23770W        W27368   8.930   9.036   6.240 -0.0502 -0.0415 -0.2326
23771W        W27369  12.644   9.390  10.692  0.3737  0.2997 -0.1486
23772W        W27370  15.085   9.152   8.670  0.4086  0.1095  0.3834
23773W        W27371   5.815   9.249   9.951  0.1812 -0.0486  0.0964
23774W        W27372   9.799   7.418   2.452 -0.0224 -0.2164 -0.2164
23775W        W27373   6.618  12.109  15.873  0.1896  0.0966  0.0429
23776W        W27374   5.486  13.845   2.176  0.5405  0.0356 -0.2720
23777W        W27375   8.211  11.880  10.584  0.1408  0.0091 -0.1482
23778W        W27376   9.187   9.155   2.385 -0.4636  0.0008 -0.0184
23779W        W27377   5.013   0.494  12.868 -0.0992 -0.0734 -0.1928
23780W        W27378  11.702   7.541   2.957 -0.2626  0.0291  0.1388
23781W        W27379   9.484   2.491  10.780  0.1447  0.1419 -0.0137
23782W        W27380  10.128   5.337   8.041  0.1912 -0.0611 -0.0300
23783W        W27381   2.085  13.230  11.814 -0.0150 -0.0687 -0.1194
23784W        W27382  15.276  13.271   3.733  0.0970  0.0659 -0.0117
23785W        W27383   3.327   1.302  14.630 -0.0389 -0.1861  0.2200
23786W        W27384   0.171   4.111  13.961  0.0016 -0.0047  0.0107
23787W        W27385  16.258  13.716  12.081 -0.0032 -0.0394  0.1472
23788W        W27386  14.965   6.998   9.182 -0.0478  0.2259 -0.1104
23789W        W27387   7.129   1.733   0.356  0.1198 -0.1771 -0.1675
23790W        W27388   2.629   6.003  16.129 -0.0595 -0.3408 -0.0252
23791W        W27389   9.204   6.295   6.093 -0.0907  0.3247  0.1536
23792W        W27390   6.681   4.069  13.000 -0.0226  0.1266  0.0818
23793W        W27391  15.933   2.408   1.447 -0.0080 -0.1204 -0.5859
23794W        W27392   1.554  15.498  11.740 -0.0544  0.5830  0.2220
23795W        W27393  13.838   1.775   9.250  0.0860 -0.0616  0.2704
23796W        W27394   6.401   4.988  14.278  0.2922 -0.2230 -0.3267
23797W        W27395  12.990   6.057  16.307  0.1515 -0.1299 -0.0598
23798W        W27396   2.525  11.437  13.905  0.1641  0.0459 -0.0750
23799W        W27397   5.116  13.119   0.818 -0.0667  0.0096 -0.0294
23800W        W27398   7.283  13.792  11.555 -0.0140 -0.1703 -0.1284
23801W        W27399   7.479  13.360  15.065 -0.2601  0.1346 -0.1451
23802W        W27400  11.031  10.287  14.099  0.0718 -0.3486 -0.0025
23803W        W27401  14.961  10.133   2.962 -0.0393 -0.0862  0.1972
23804W        W27402  14.499   8.241   9.023  0.2363 -0.0825  0.3439
23805W        W27403  16.387   4.899   4.581  0.3595 -0.0366 -0.1571
23806W        W27404   3.374  15.978   3.726 -0.0235 -0.1013 -0.2080
23807W        W27405   9.317   4.786   1.233  0.0126 -0.1535  0.2156
23808W        W27406  15.221   5.318   6.990 -0.4562 -0.2164 -0.1938
23809W        W27407  14.078  10.492   9.518 -0.2817 -0.1937  0.1649
23810W        W27408  10.065   3.440  10.583  0.0984  0.1154 -0.1896
23811W        W27409   6.531   6.909   2.544 -0.1561  0.1329 -0.0389
23812W        W27410  11.920  11.994   9.210  0.0015 -0.2089 -0.4965
23813W        W27411  13.339  11.835   4.639 -0.1239 -0.1108 -0.2836
23814W        W27412   1.590   6.304  10.789 -0.3339  0.0996 -0.1312
23815W        W27413   0.389  11.402   2.942  0.2101 -0.1144 -0.1692
23816W        W27414  13.715   8.474  15.615  0.1184 -0.0868  0.1357
23817W        W27415   0.918   2.421   9.505  0.2693 -0.1069 -0.0797
23818W        W27416  14.792  13.933  12.005 -0.0727  0.2110  0.2843
23819W        W27417   3.516  12.111  13.194  0.1029  0.2171 -0.1853
23820W        W27418   2.597   6.850  11.179  0.1851  0.0116  0.3782
23821W        W27419   5.811  14.588  11.145  0.1864 -0.0338 -0.0014
23822W        W27420  10.902   3.356   8.821  0.1772  0.1108 -0.1992
23823W        W27421   0.165   4.365   9.425  0.2998 -0.0476 -0.2996
23824W        W27422   0.293   1.840   4.606 -0.1174 -0.1029 -0.0005
23825W        W27423  12.766  11.622  15.198 -0.1860  0.1497 -0.1523
23826W        W27424   5.148   0.526   8.071 -0.2383  0.0688  0.0131
23827W        W27425  10.888  13.050   3.359 -0.3447 -0.1197 -0.0125
23828W        W27426   1.867  10.216  14.550  0.0770  0.1708  0.2157
23829W        W27427  15.013   0.911   6.637 -0.3664 -0.0598  0.0496
23830W        W27428   9.580   7.865   0.823  0.1667  0.2689  0.1971
23831W        W27429   4.691   2.214  16.023 -0.0814 -0.0768 -0.1023
23832W        W27430  14.050   6.482  12.888  0.0314  0.2533  0.1491
23833W        W27431   3.889   2.277  13.421  0.3999  0.1400  0.1469
23834W        W27432   3.893  15.391   6.250 -0.1804  0.0238 -0.1674
23835W        W27433   0.914  11.851   7.259  0.0380  0.0589 -0.0362
23836W        W27434   3.359   4.832   6.362 -0.1376 -0.0345 -0.0634
23837W        W27435   9.148   4.086  12.401  0.0827  0.1504 -0.3189
23838W        W27436   9.086  10.734   3.481  0.0286  0.0526 -0.1293
23839W        W27437   2.043  14.371   2.582 -0.0296 -0.1454  0.2520
23840W        W27438   6.806   8.141  12.001  0.2898 -0.1125  0.1250
23841W        W27439  10.503   4.960  14.390  0.1982 -0.2172  0.3002
23842W        W27440  13.388   5.596   6.841  0.0365 -0.2432 -0.1020
23843W        W27441  12.159  10.321   0.919 -0.1369 -0.2131 -0.1444
23844W        W27442  14.142  13.860   9.402 -0.2355  0.0470 -0.2551
23845W        W27443   2.612   3.328   4.921 -0.1354  0.2717 -0.2528
23846W        W27444  14.907   3.346   0.091  0.0676  0.0719  0.1103
23847W        W27445  11.800   2.116   8.424 -0.0929  0.1922 -0.2242
23848W        W27446   0.314  13.841  15.932  0.1436  0.0399 -0.2031
23849W        W27447  10.935   5.674  11.809  0.2923 -0.0208 -0.1829
23850W        W27448   5.289   6.586  12.679 -0.1029 -0.1896  0.1110
23851W        W27449  10.659   4.962   4.352  0.0056  0.2623 -0.1234
23852W        W27450   5.204   1.543   9.315  0.0433  0.2145 -0.0555
23853W        W27451  13.661  11.245   7.291 -0.0671  0.0658 -0.2244
23854W        W27452   1.713  12.072  16.222  0.0384 -0.0315 -0.2769
23855W        W27453   2.095  12.465   7.594 -0.2493 -0.0535  0.0803
23856W        W27454   6.140   1.326   9.678 -0.0069 -0.0323  0.0997
23857W        W27455   1.356  11.752  13.208 -0.2392 -0.0129 -0.1150
23858W        W27456   0.580   2.647  14.700  0.0989 -0.1871 -0.1179
23859W        W27457  11.995   0.119   2.890 -0.0240  0.1659 -0.2512
23860W        W27458   4.466   7.146   6.770  0.2694 -0.0293 -0.0772
23861W        W27459  15.346  13.471  14.080 -0.2971  0.0118 -0.1747
23862W        W27460   0.911   6.177   8.214 -0.3066 -0.0992 -0.1485
23863W        W27461  10.189   7.894   4.031 -0.0587  0.2448 -0.2098
23864W        W27462   6.500   8.977   9.234 -0.1001 -0.3500  0.1577
23865W        W27463  15.948   7.747   2.302  0.2441  0.2279  0.1102
23866W        W27464  11.329   1.779   5.060  0.1956 -0.1830  0.2875
23867W        W27465   3.001   1.656  11.642  0.0614  0.0028  0.0706
23868W        W27466  12.876   1.206   9.589 -0.1971  0.0200  0.0545
23869W        W27467  13.598   8.856   0.485  0.3907 -0.1378 -0.4065
23870W        W27468   0.738  14.539   6.165 -0.0223  0.3850  0.1579
23871W        W27469  15.206   3.899   6.558 -0.1142 -0.1697  0.0251
23872W        W27470   2.708  10.242   0.786  0.2189  0.2225 -0.1614
23873W        W27471  13.191  13.497   3.784 -0.1541 -0.1287 -0.0327
23874W        W27472   4.848  14.850  10.087 -0.2488 -0.2995 -0.0158
23875W        W27473   6.938  15.849   3.068 -0.2646  0.3676  0.1246
23876W        W27474   3.273  11.024   4.640 -0.0432  0.1093  0.1280
23877W        W27475  12.392   8.875   1.603 -0.0046  0.1237 -0.1855
23878W        W27476   8.080   7.339  10.135 -0.3092  0.0690 -0.0802
23879W        W27477   2.623   3.354   9.126 -0.0340 -0.1010  0.0420
23880W        W27478   3.825  11.586   0.778 -0.0334 -0.0090  0.4464
23881W        W27479  13.602   8.950   2.247  0.1634  0.3008 -0.2547
23882W        W27480   1.937   0.370   6.513 -0.0855  0.0301 -0.1077
23883W        W27481  10.678   1.175  14.350  0.1103 -0.2536 -0.3434
23884W        W27482   9.636  10.218  12.867 -0.1017 -0.2310 -0.1953
23885W        W27483   6.627   3.070   2.401 -0.0376  0.5808 -0.1897
23886W        W27484   1.898  16.161  12.863 -0.0163 -0.0087 -0.3069
23887W        W27485  13.922  10.101   7.113  0.2133  0.0434  0.0289
23888W        W27486   9.730   4.602   9.710  0.0634  0.1656 -0.1219
23889W        W27487   3.565   7.207   0.515  0.1658 -0.0656  0.0850
23890W        W27488  10.023   4.383  16.062  0.0904  0.3428  0.0951
23891W        W27489   1.560   5.741   6.258  0.0890 -0.1922 -0.0179
23892W        W27490   4.250  12.758   3.171  0.0673 -0.0168 -0.3682
23893W        W27491   8.395   0.340   5.094  0.0525 -0.0240  0.0349
23894W        W27492   4.046  10.502   3.985 -0.0297  0.2496  0.1007
23895W        W27493  15.538   4.590   8.380 -0.0135  0.0326  0.0214
23896W        W27494   9.956  12.156  12.744 -0.0619  0.1530 -0.0899
23897W        W27495  15.639   3.606   6.702  0.0802 -0.0896  0.0676
23898W        W27496  13.239   1.652  10.818  0.1882 -0.2375 -0.2303
23899W        W27497   3.293   8.537   9.975 -0.0111 -0.0746  0.0311
23900W        W27498  14.038   3.710  12.003  0.0629  0.3196  0.1610
23901W        W27499  16.062   0.089  11.596 -0.0551 -0.2104  0.0842
23902W        W27500  13.344  15.358   6.721  0.2073  0.2682  0.2716
23903W        W27501  14.209   0.225   0.703 -0.1176 -0.2803  0.1284
23904W        W27502  11.109   1.055  16.055 -0.1015  0.2074  0.1005
23905W        W27503   6.120  12.575   3.136  0.0394  0.1694 -0.4022
23906W        W27504  14.518  13.470   9.765  0.2996 -0.3085  0.2014
23907W        W27505  10.534  12.600  12.089 -0.0399  0.3262 -0.0361
23908W        W27506  13.569  13.514  10.792 -0.2820  0.0810  0.4124
23909W        W27507   4.542  14.016  11.205 -0.5166 -0.4267  0.1235
23910W        W27508  13.664   5.027   4.713 -0.1370  0.1736  0.0430
23911W        W27509   9.711   9.720  12.880  0.2022 -0.1741  0.0371
23912W        W27510  14.674   9.766  12.027 -0.0643  0.1569 -0.1574
23913W        W27511   3.669  10.967   4.918  0.0059  0.0737 -0.0134
23914W        W27512  16.083   2.856   2.463  0.1552 -0.3612  0.0115
23915W        W27513   5.749   2.683   4.834  0.2464  0.3512  0.0431
23916W        W27514  12.441  14.778   1.611 -0.0494 -0.3468  0.4900
23917W        W27515   7.093  15.292   3.893 -0.2747  0.1258 -0.3410
23918W        W27516   5.252   3.491   6.361  0.1196 -0.1281 -0.1269
23919W        W27517  14.795  12.392   8.424  0.1766 -0.3456 -0.0056
23920W        W27518   6.562   6.156  14.074 -0.0393 -0.3318  0.2369
23921W        W27519   3.477   0.765   5.023 -0.0803 -0.3303  0.0448
23922W        W27520  12.053   7.315  11.099  0.0772  0.0736 -0.2362
23923W        W27521  10.682   1.381  11.593 -0.0851  0.0826  0.3056
23924W        W27522   5.619   8.639   4.003 -0.0664 -0.0367 -0.0867
23925W        W27523  12.515   4.061   4.698 -0.1444  0.0469 -0.3874
23926W        W27524  15.974  10.782  15.712 -0.0150 -0.1017 -0.0733
23927W        W27525   2.251   6.468  10.474  0.1235  0.1092  0.1183
23928W        W27526   5.480   5.676  12.425 -0.2483  0.0226 -0.3403
23929W        W27527   1.959   0.356   5.075  0.0841 -0.2006  0.4002
23930W        W27528   5.586   6.660   8.816 -0.0802 -0.0273  0.0775
23931W        W27529  13.054   6.471  14.174  0.4681 -0.2397 -0.2836
23932W        W27530  12.834   0.045   7.952 -0.2643  0.0974  0.1661
23933W        W27531  13.435   0.282  10.922  0.1591  0.3418  0.1640
23934W        W27532  11.131   4.911  14.620 -0.0012 -0.0912  0.2035
23935W        W27533  14.572  13.389  13.186  0.2867 -0.2601  0.1989
23936W        W27534   0.763   3.630   2.919  0.0160 -0.3420 -0.0822
23937W        W27535  16.208   0.074  12.425  0.0372 -0.0890  0.0944
23938W        W27536   3.084  13.689  11.698  0.0555 -0.0444  0.1406
23939W        W27537  15.833   7.119  12.450  0.0466  0.2878 -0.1335
23940W        W27538  12.472  12.707   6.067  0.0765 -0.2456 -0.1447
23941W        W27539  13.982  12.393   8.261  0.0430  0.1346  0.1074
23942W        W27540  13.205  11.433   8.731 -0.0410 -0.2911 -0.1426
23943W        W27541  12.746  10.719  16.118 -0.1620 -0.1389  0.0801
23944W        W27542   9.751  14.225  13.310  0.3105  0.0758 -0.0016
23945W        W27543   4.239  12.903  12.224 -0.0219  0.0182  0.1380
23946W        W27544   0.761   0.066   6.430 -0.1478  0.0624 -0.1594
23947W        W27545   5.909  14.609   6.918  0.0788 -0.1167  0.0170
23948W        W27546   8.063  10.012  12.104 -0.0198  0.3856 -0.5306
23949W        W27547   0.120  11.543  14.729  0.0654 -0.2250  0.1380
23950W        W27548   8.467   2.545   4.877 -0.0557  0.0301  0.1101
23951W        W27549  12.719  14.847   3.544  0.2212 -0.0423 -0.2492
23952W        W27550   9.768   0.231  12.705 -0.3505 -0.2617 -0.0633
23953W        W27551   8.989   2.217   1.450  0.1271 -0.0420 -0.0032
23954W        W27552   5.074  13.687   4.566  0.0694  0.2214 -0.2569
23955W        W27553   2.921  10.885   8.612  0.3190 -0.2253 -0.3138
23956W        W27554  15.010   9.532   7.726 -0.0724  0.0839 -0.1535
23957W        W27555   8.120   8.487   5.571  0.0084  0.2446 -0.1457
23958W        W27556   8.085   8.793   2.643  0.0342  0.0569  0.5345
23959W        W27557  11.653  13.750  10.105  0.1420  0.2164  0.0167
23960W        W27558   9.510   6.894   5.680 -0.3770  0.1835  0.2784
23961W        W27559  16.104  11.827   2.996 -0.2130 -0.2454 -0.1658
23962W        W27560  12.518   9.482  12.071 -0.0357 -0.0084 -0.1627
23963W        W27561   3.933   2.270  13.959  0.2781 -0.1720  0.1573
23964W        W27562   4.526   9.668  13.351  0.0634  0.0125 -0.3996
23965W        W27563  12.812  14.559  14.635  0.3275  0.0038  0.0102
23966W        W27564  11.912   3.005   1.189 -0.0293 -0.1878 -0.2239
23967W        W27565  12.919   0.668   6.512 -0.0927 -0.0990 -0.0658
23968W        W27566   4.030  10.619   2.721  0.2594  0.0453 -0.2467
23969W        W27567  12.038   8.973  10.869 -0.3223  0.2004  0.1698
23970W        W27568   1.848   6.053  15.275  0.1179  0.0661 -0.3601
23971W        W27569   0.695  14.366   5.692 -0.2072  0.1869  0.2959
23972W        W27570  15.376  15.321  12.499  0.1257 -0.0608 -0.0397
23973W        W27571   0.661  12.899  15.032  0.0990  0.1050 -0.1423
23974W        W27572   4.175   0.220   9.197  0.2170 -0.0870  0.0161
23975W        W27573  11.694   2.901   6.547  0.3089 -0.2338  0.2371
23976W        W27574   1.306  10.547   0.628  0.0680  0.1788  0.1889
23977W        W27575   1.017   0.963   8.560  0.2540  0.3224 -0.3036
23978W        W27576  14.742   6.131   0.439  0.0049  0.3491  0.0869
23979W        W27577   7.870   5.343   5.632  0.0633  0.1598  0.2529
23980W        W27578   9.946   7.061   9.991 -0.1628  0.1160  0.0008
23981W        W27579  10.998   3.612   4.678  0.0844 -0.0157 -0.0582
23982W        W27580  10.642   2.339  12.687 -0.0634  0.0381 -0.1128
23983W        W27581   4.274   2.984  15.981  0.3165  0.0618  0.0880
23984W        W27582  11.119   4.781   6.681 -0.0885  0.2737 -0.1657
23985W        W27583   1.121   1.247  11.584 -0.1103  0.1478 -0.2804
23986W        W27584   6.108   1.351   0.964  0.2797 -0.1154 -0.0674
23987W        W27585   3.937   7.594   4.081 -0.0150  0.1275  0.0582
23988W        W27586   0.470   5.821  12.631  0.1320 -0.2225  0.1474
23989W        W27587  11.793   7.179  13.248 -0.0266  0.0838 -0.2770
23990W        W27588   2.888   0.381   3.036 -0.2192  0.1463 -0.0633
23991W        W27589   0.181   9.840  12.604  0.2883 -0.0237  0.0142
23992W        W27590   2.831  11.799   1.219  0.3959 -0.4352  0.1615
23993W        W27591  10.783   9.839   5.306 -0.5570  0.1795  0.0573
23994W        W27592   4.608   8.717  10.042 -0.3594 -0.1995  0.0281
23995W        W27593   9.099   9.999  12.112  0.1462 -0.4343 -0.3739
23996W        W27594  13.369   4.188   2.329 -0.0367  0.1034  0.1250
23997W        W27595  14.841   4.262   6.396 -0.0956 -0.1073  0.2725
23998W        W27596   1.088   8.360   0.992 -0.0681 -0.0849  0.0961
23999W        W27597   0.977  10.128   8.874  0.1083  0.3343  0.2762
24000W        W27598  14.968  11.186  12.221  0.2085 -0.0841  0.3131
24001W        W27599   0.773   4.974   9.365 -0.0503  0.1749 -0.1143
24002W        W27600  15.414  13.185   9.338 -0.0905 -0.0772 -0.2520
24003W        W27601  15.322   1.583  12.560 -0.3696 -0.0086 -0.0314
24004W        W27602  11.000   4.090  15.161 -0.0569  0.2926  0.0960
24005W        W27603   7.015   7.123   2.423  0.1015 -0.1070  0.3347
24006W        W27604   4.892  14.951   2.245  0.1870 -0.0785 -0.2249
24007W        W27605  12.914  13.360   8.300  0.0993  0.1320 -0.2643
24008W        W27606   8.811   7.603   3.219  0.0666  0.1975  0.0381
24009W        W27607  14.884   4.503   2.956  0.0604 -0.0541 -0.0204
24010W        W27608   6.146   4.172   3.820 -0.1640 -0.1821  0.2674
24011W        W27609   0.575  14.713   7.663  0.0257 -0.0085  0.0221
24012W        W27610  14.373   4.366  14.026  0.1013  0.1817 -0.0807
24013W        W27611   3.441   2.020   4.210 -0.0277  0.1466  0.3006
24014W        W27612  11.876   0.729   0.893 -0.2035 -0.0581 -0.2102
24015W        W27613   6.014  11.717   0.742 -0.1961 -0.0529 -0.1482
24016W        W27614   0.094  13.469   2.501  0.2216  0.2325  0.1840
24017W        W27615   2.514  11.028  10.289 -0.0818  0.3070  0.1015
24018W        W27616  15.153  15.427   0.496 -0.2210 -0.0340 -0.0657
24019W        W27617   0.848   3.087  14.214  0.0288  0.1314 -0.0090
24020W        W27618   0.364   8.757  12.251 -0.0353 -0.0018  0.0788
24021W        W27619   4.095  12.241   5.644 -0.1589  0.1760  0.0257
24022W        W27620   0.829   9.471  15.070 -0.1099  0.0274  0.0871
24023W        W27621  13.937   9.432   3.101 -0.0285 -0.1897 -0.0838
24024W        W27622  13.860  10.764   2.739 -0.1526  0.0053  0.1283
24025W        W27623   8.397   1.170  11.323 -0.1633 -0.1889 -0.0015
24026W        W27624  11.294  12.218   7.661  0.0030 -0.3724 -0.1100
24027W        W27625   0.967   5.878  13.534  0.0058 -0.2753 -0.1330
24028W        W27626  15.705  11.026   6.010  0.0497  0.2342  0.1475
24029W        W27627   2.032   4.611   3.943 -0.1156 -0.0100  0.0111
24030W        W27628   1.441   6.785   8.428  0.2561 -0.1542  0.1942
24031W        W27629  15.371   5.047  16.174 -0.3693 -0.3760  0.1528
24032W        W27630   0.539   9.754   4.674 -0.3202 -0.0383  0.2415
24033W        W27631   1.841   5.409  11.462 -0.0868 -0.3463  0.0162
24034W        W27632  11.381   3.384  15.802 -0.0618 -0.2068 -0.1475
24035W        W27633   2.644   5.173  11.588  0.0959  0.1452 -0.0254
24036W        W27634   5.001  13.544   2.888  0.2579  0.1455 -0.1428
24037W        W27635  16.117  16.143   3.086 -0.0979 -0.0146  0.0245
24038W        W27636  14.826   8.200  11.670 -0.0434  0.2566  0.2945
24039W        W27637   8.345   9.750   0.442  0.0830  0.2906  0.0895
24040W        W27638   7.299  11.798   4.961 -0.1851  0.1059 -0.2984
24041W        W27639   0.664   2.362  15.226 -0.2302 -0.0320  0.2057
24042W        W27640   9.537   7.025   4.831 -0.2538 -0.3191  0.0840
24043W        W27641   1.354   1.487  10.449  0.1983  0.0185  0.3460
24044W        W27642  14.954  13.491   9.567 -0.2153  0.2544  0.2193
24045W        W27643   2.964   0.171   7.693  0.0234 -0.1885  0.0404
24046W        W27644   6.058   4.586   6.541 -0.0134  0.0392  0.0553
24047W        W27645  12.586  15.584  13.067  0.1450  0.2073  0.1708
24048W        W27646   3.271  12.844   2.047 -0.0399  0.1316  0.3468
24049W        W27647   2.928  14.735   5.619 -0.0303 -0.1495 -0.2767
24050W        W27648   2.280  16.242  14.577 -0.0426  0.2373  0.1398
24051W        W27649   7.539   7.488   5.066 -0.1202 -0.0554 -0.1447
24052W        W27650   4.949  15.545   4.592 -0.1418  0.2550  0.2075
24053W        W27651   5.101  11.781   6.132 -0.0061 -0.1851  0.1477
24054W        W27652   5.414   2.606  10.164 -0.0527  0.0725 -0.0696
24055W        W27653   7.267   8.159   4.656 -0.3505  0.0945 -0.1401
24056W        W27654   6.461   3.944  16.144  0.4046 -0.0820  0.0710
24057W        W27655   5.281   2.627  14.579  0.1647 -0.2273 -0.1780
24058W        W27656   5.431   1.110   9.216  0.0779  0.2010  0.3468
24059W        W27657   3.779  16.324   7.062  0.0627  0.1513  0.1033
24060W        W27658  10.989   0.040  14.084 -0.2622 -0.1136 -0.0194
24061W        W27659  13.567  12.965   5.506  0.3565  0.3427 -0.3194
24062W        W27660   1.831   9.706   0.547 -0.2176  0.1652  0.0545
24063W        W27661  14.033   7.903   5.725 -0.1682 -0.0569 -0.3723
24064W        W27662  11.121   0.562   4.443  0.1706 -0.1744 -0.1294
24065W        W27663   4.090   0.380   1.770 -0.0148 -0.0671 -0.0476
24066W        W27664   1.954   1.511  12.518 -0.0591  0.3922  0.1594
24067W        W27665   5.052  14.523  10.820 -0.0298  0.4935  0.0098
24068W        W27666   3.845   3.619   9.185  0.4308 -0.2021  0.1281
24069W        W27667  14.643   1.413   0.814 -0.0199  0.0894  0.0489
24070W        W27668   7.000  13.449   1.730 -0.0988 -0.0435 -0.1730
24071W        W27669   0.281  10.520   1.777  0.0913 -0.2976  0.0073
24072W        W27670   7.428   2.135   4.236 -0.2238  0.1369  0.1980
24073W        W27671   9.910   1.307   6.198 -0.0786 -0.0006 -0.1131
24074W        W27672   5.860  10.414   4.381  0.0424  0.0544 -0.0272
24075W        W27673   1.796   8.506  10.594 -0.0508 -0.1585 -0.2660
24076W        W27674   6.024   8.782  11.532  0.1662 -0.4564 -0.3867
24077W        W27675   3.252   3.404   6.836  0.0345 -0.3118  0.2590
24078W        W27676   6.298   3.986   0.612 -0.0023  0.1135 -0.2017
24079W        W27677   0.338   4.654  15.811  0.0847  0.1049 -0.0814
24080W        W27678  14.259   9.925   8.475 -0.3324  0.1076  0.1727
24081W        W27679  12.431   8.351   1.463  0.1681 -0.2067 -0.0906
24082W        W27680  13.360  11.599   4.224  0.1546  0.0814  0.0888
24083W        W27681  12.034   1.258   1.851 -0.0198 -0.2317 -0.0881
24084W        W27682   5.515  11.618   0.578  0.2059  0.1041  0.2102
24085W        W27683   5.930  12.150  14.865 -0.2780  0.0449 -0.1930
24086W        W27684  13.337   7.915   1.572 -0.1412  0.3161 -0.3080
24087W        W27685   3.306  15.980  11.206  0.1943 -0.1101 -0.1567
24088W        W27686  13.522   0.849   5.716  0.1710  0.2335 -0.1238
24089W        W27687   8.612  15.615  14.821  0.1599 -0.2055 -0.0883
24090W        W27688   7.664   7.297   4.645 -0.1003 -0.0353  0.0663
24091W        W27689  16.245   2.088   1.116 -0.0634  0.0503  0.1379
24092W        W27690   5.423   0.542  12.103 -0.1173 -0.4421 -0.0207
24093W        W27691  12.810  10.866   9.922 -0.2227  0.0307 -0.0443
24094W        W27692   7.450   1.631  10.900 -0.2001  0.1410 -0.1680
24095W        W27693   9.457  13.258   0.697  0.0448  0.3784  0.0992
24096W        W27694   0.614   0.981   4.322  0.0315 -0.2020 -0.2986
24097W        W27695   3.467  15.218  15.215  0.1358  0.1711  0.0486
24098W        W27696  12.963  15.113   3.857  0.0323 -0.0148 -0.1010
24099W        W27697  13.631  11.258  16.025 -0.2986  0.2097 -0.1427
24100W        W27698  10.373   0.353   0.932 -0.1643 -0.0209  0.4172
24101W        W27699   5.359   4.803   2.868  0.0790  0.4243  0.2524
24102W        W27700   1.981   4.591   4.472 -0.0193 -0.0680 -0.2762
24103W        W27701  14.111   3.360  14.204 -0.2108  0.0724  0.2218
24104W        W27702  15.635   6.657   7.680  0.3939 -0.0213  0.0435
24105W        W27703  10.583   3.159  11.179 -0.2881 -0.2919  0.1549
24106W        W27704   3.120  14.578   9.635 -0.3862 -0.3516 -0.0312
24107W        W27705   1.578   4.454  13.188 -0.1649 -0.0151 -0.3904
24108W        W27706  11.882   6.854   3.442 -0.3349  0.0272 -0.0380
24109W        W27707   1.125   0.200  15.480  0.0208 -0.1919 -0.1192
24110W        W27708   9.419   5.283   6.956 -0.1886 -0.1904 -0.0038
24111W        W27709   1.944  10.632   4.550  0.1717  0.1669  0.4310
24112W        W27710  15.565  12.634   7.362 -0.0661 -0.4592 -0.2151
24113W        W27711  11.982   4.772  11.190  0.1711  0.3019  0.1281
24114W        W27712   3.002   2.627  13.449  0.1776 -0.0926 -0.0250
24115W        W27713   9.177  16.064   2.867 -0.2061 -0.1915 -0.0530
24116W        W27714   2.469  12.730   1.602  0.1448 -0.0997 -0.0440
24117W        W27715   6.351  15.033  14.508 -0.0584  0.0584  0.0010
24118W        W27716  12.843  11.770  14.723 -0.1966  0.1592  0.0173
24119W        W27717  15.671   8.913   7.917  0.3631  0.0948  0.0829
24120W        W27718   3.535  12.364  16.089 -0.0400  0.3439  0.0973
24121W        W27719   3.329   7.888   8.013  0.2688 -0.0832  0.2067
24122W        W27720  13.662   2.556   4.011 -0.0854  0.0724 -0.0790
24123W        W27721   6.282   0.782   5.396  0.0994  0.0613 -0.1695
24124W        W27722   6.451   3.918   8.722 -0.0649  0.1303  0.0203
24125W        W27723  14.621   5.208  13.891 -0.0019 -0.0672  0.0130
24126W        W27724   9.442   5.587  14.405 -0.3520 -0.0789  0.4305
24127W        W27725  12.900  10.811   0.306  0.1236 -0.2683  0.2845
24128W        W27726   0.912  13.426   6.411  0.0688  0.1463 -0.1954
24129W        W27727   3.960   5.414  14.897 -0.2621 -0.1224  0.1340
24130W        W27728  11.421  15.711  11.523  0.1008 -0.0313  0.3417
24131W        W27729   4.091  15.792   2.869  0.3786 -0.1584  0.0728
24132W        W27730   9.670   4.300   3.665 -0.1846  0.1411  0.0125
24133W        W27731  11.647   7.997   9.771 -0.1020 -0.0720  0.0802
24134W        W27732  15.108  12.759  15.015 -0.3256 -0.2205  0.0768
24135W        W27733  15.120   7.577  12.273  0.0516  0.2013 -0.1609
24136W        W27734   8.020   7.900  10.132 -0.0083 -0.1560 -0.1698
24137W        W27735   3.414   7.514   8.740 -0.1352 -0.3008  0.2439
24138W        W27736   2.803   7.106   8.954  0.0060 -0.1853  0.2236
24139W        W27737  14.052   9.480  15.595 -0.1549 -0.1240 -0.2953
24140W        W27738  14.519  14.695  12.423  0.0793  0.2536  0.3519
24141W        W27739  11.042   6.022   5.988  0.3383  0.0334  0.0937
24142W        W27740   3.770  14.059   1.210 -0.1016 -0.2190 -0.1324
24143W        W27741  10.056   0.662  14.969 -0.3675  0.2421  0.0298
24144W        W27742  12.618   8.959  13.234 -0.0777  0.1986  0.0457
24145W        W27743   5.393  11.582   6.958 -0.3224 -0.3662  0.1712
24146W        W27744  12.603   4.589   3.494  0.0508  0.2301  0.3220
24147W        W27745  14.156   8.797   0.346 -0.1344 -0.2662 -0.5926
24148W        W27746  10.170  11.692   1.293 -0.0298 -0.1826 -0.0341
24149W        W27747   9.699   6.380   8.028 -0.1689  0.0147  0.0888
24150W        W27748   6.110  12.195  12.720  0.0910  0.1175 -0.2421
24151W        W27749  14.406   6.454   9.361  0.3135  0.0091 -0.1429
24152W        W27750   7.976  12.661   4.507  0.2243  0.0693  0.0679
24153W        W27751  10.094   4.233   0.201 -0.1463 -0.2230 -0.0284
24154W        W27752  16.122   7.961  16.124 -0.0403 -0.2219 -0.0488
24155W        W27753  10.690  13.331   4.223 -0.2842 -0.0419  0.2453
24156W        W27754   8.616  13.718   2.349 -0.2132 -0.1572  0.1852
24157W        W27755   7.473   4.987  14.993 -0.1120  0.1403  0.1287
24158W        W27756   0.092  12.807  13.456  0.0383 -0.1413 -0.0912
24159W        W27757   2.595   6.015   4.232 -0.0937  0.4183  0.0392
24160W        W27758   2.327   2.119  14.194 -0.2806  0.3376 -0.0949
24161W        W27759  13.569  14.600   4.240  0.2248 -0.2823 -0.1798
24162W        W27760  11.505   2.644   3.362 -0.0655 -0.1254  0.0456
24163W        W27761  12.913  14.359   0.225 -0.0835  0.0846 -0.0249
24164W        W27762  15.906  13.830   7.591  0.1315  0.0851  0.0473
24165W        W27763   9.810   4.094   5.162 -0.0897 -0.2495 -0.0519
24166W        W27764   1.199   7.211  10.226 -0.0333 -0.0778  0.0651
24167W        W27765   6.595   4.593   5.747  0.0693  0.1667 -0.1391
24168W        W27766   2.851   3.077   0.871 -0.0724  0.0325 -0.2539
24169W        W27767  13.673   3.104   9.246  0.2190  0.2376  0.2491
24170W        W27768   0.891   0.433   0.260  0.0339 -0.1477 -0.0556
24171W        W27769   5.132   0.101   8.316  0.1412 -0.0830 -0.1372
24172W        W27770   3.781   3.528   3.601 -0.1001 -0.1512 -0.2667
24173W        W27771  15.607   1.222   0.416 -0.2154 -0.0519  0.3543
24174W        W27772  12.157   6.573   4.271 -0.0656  0.1352 -0.1210
24175W        W27773   6.624  11.744   7.693 -0.2174 -0.1367 -0.0429
24176W        W27774   0.713   9.291   7.502 -0.0180  0.1425 -0.2609
24177W        W27775   8.305   1.321  12.592  0.0898  0.3385  0.1977
24178W        W27776   4.458  15.110  13.977 -0.0732  0.0768  0.0050
24179W        W27777  12.270   0.965  13.991 -0.0801  0.3462  0.0245
24180W        W27778   7.966  14.393   9.944 -0.0323  0.0906  0.3248
24181W        W27779   8.668   7.088  15.749 -0.0660 -0.0488 -0.0507
24182W        W27780  10.116   1.973  15.928  0.1303 -0.1346  0.0398
24183W        W27781   0.443  12.331   5.756 -0.3884  0.0449 -0.2386
24184W        W27782   6.863   1.983   7.680  0.0368  0.1640  0.1327
24185W        W27783  11.924  15.663  14.966 -0.1297  0.0687 -0.0998
24186W        W27784   0.855  13.998  14.072 -0.3394  0.0971  0.1211
24187W        W27785   4.962  13.954  10.187 -0.3186  0.1168  0.0513
24188W        W27786   5.229  16.123   0.587  0.2712 -0.2041  0.0944
24189W        W27787  15.266   2.283   4.541  0.2727 -0.0508 -0.1025
24190W        W27788   3.763   9.617  13.378  0.2390  0.0603  0.1439
24191W        W27789  15.634  14.590   9.360  0.1227  0.2669  0.2127
24192W        W27790  12.433   3.532   4.844 -0.0484 -0.3603 -0.1748
24193W        W27791  13.284  13.523  16.118 -0.3608  0.2709 -0.2784
24194W        W27792   0.209  15.720  14.142 -0.0308  0.0131  0.4724
24195W        W27793   9.746   9.452   3.659  0.0671 -0.2722 -0.0118
24196W        W27794   8.802  11.999   3.787 -0.1540 -0.0256 -0.2040
24197W        W27795  11.002  12.417   9.765 -0.0993 -0.1755 -0.2383
24198W        W27796   3.186  12.018   9.021 -0.0667 -0.1806 -0.0740
24199W        W27797   0.204   4.698   8.451  0.0121 -0.0978 -0.1309
24200W        W27798  12.464   8.416  15.230  0.1091  0.0771 -0.0295
24201W        W27799   8.984   4.238   1.863  0.0158  0.1671  0.3831
24202W        W27800  10.055  11.173   1.085 -0.4065  0.0954  0.2888
24203W        W27801   5.780   2.604  12.171 -0.2135 -0.3270 -0.0610
24204W        W27802   0.439  10.261  14.245  0.1161  0.0257  0.1797
24205W        W27803  11.130  11.853   4.231 -0.2673 -0.0554  0.1054
24206W        W27804   4.786  14.062   2.062  0.3878  0.0931  0.2827
24207W        W27805   6.346  14.830   7.582 -0.2084 -0.0704 -0.2427
24208W        W27806   0.531   5.818  15.412  0.0093  0.0772  0.0435
24209W        W27807  12.086  11.929  12.907  0.3015 -0.0159 -0.1677
24210W        W27808   2.362   5.115  14.192  0.2074  0.1556 -0.0167
24211W        W27809  14.899   8.074   5.495 -0.0489 -0.0880  0.0212
24212W        W27810  15.094   8.630   8.471 -0.3530 -0.2061  0.3735
24213W        W27811  14.231   1.718  16.353  0.1067  0.1158 -0.0530
24214W        W27812   8.250   2.381   2.007  0.0968  0.4678 -0.3139
24215W        W27813  15.809   7.971  15.730 -0.0784  0.3748 -0.1005
24216W        W27814  10.596   3.483   6.424  0.1933  0.1832 -0.0435
24217W        W27815   7.421   0.679  14.252  0.0002 -0.1136  0.1019
24218W        W27816   4.627   8.604  15.297 -0.0220  0.1341 -0.2474
24219W        W27817  10.006   8.318   3.808 -0.2483 -0.4080 -0.0524
24220W        W27818   1.040  14.406  11.455 -0.0565 -0.0570  0.0959
24221W        W27819   9.790   5.684   9.999  0.0163  0.0121  0.0841
24222W        W27820  10.007   5.517   6.596  0.3364 -0.0630 -0.2728
24223W        W27821   7.153  14.661  15.312  0.1451 -0.0680 -0.1034
24224W        W27822  15.566  14.569   3.246 -0.3052 -0.4534  0.1899
24225W        W27823  12.302   2.446   2.931 -0.2245 -0.1473 -0.1761
24226W        W27824   2.463   2.883   9.844 -0.2617  0.0209  0.2262
24227W        W27825   1.240   1.434   2.121  0.1146  0.0384 -0.4207
24228W        W27826   5.564  11.971   0.981  0.3194  0.2308 -0.0833
24229W        W27827  10.161   8.000   1.197 -0.0304 -0.0646  0.1083
24230W        W27828   1.534  13.556   6.513  0.2721 -0.0618  0.0048
24231W        W27829  14.940   5.959   3.259  0.2309 -0.0020  0.0090
24232W        W27830   1.723  10.198   7.813 -0.2903  0.2279 -0.0420
24233W        W27831   8.229   0.913   4.364 -0.1980  0.0850  0.1541
24234W        W27832  13.063   8.246   3.234 -0.0283 -0.0155  0.0939
24235W        W27833   4.853  14.016   0.031 -0.0639 -0.0289  0.4739
24236W        W27834   6.058   3.494  12.468 -0.2991 -0.2075  0.1300
24237W        W27835   4.079  14.167   3.471  0.2498  0.1832  0.0571
24238W        W27836   5.816   1.870   6.392  0.2226  0.1480  0.0778
24239W        W27837   4.094  12.424  10.594 -0.1714  0.0636 -0.0463
24240W        W27838  13.964  12.583   4.443  0.0477  0.0250 -0.0760
24241W        W27839  15.327   3.490  12.590 -0.0744  0.0858 -0.0555
24242W        W27840  15.694   5.881  10.274  0.0117 -0.0525 -0.0311
24243W        W27841   9.416  11.980  14.899 -0.1755 -0.3029 -0.0473
24244W        W27842   9.385   9.807   3.701  0.0220 -0.0458 -0.0797
24245W        W27843  11.796   2.395   6.616 -0.1874  0.3253  0.2075
24246W        W27844  10.813  14.788  14.413  0.3278  0.1041 -0.2692
24247W        W27845   7.069   8.027   2.817  0.0629 -0.1737 -0.1704
24248W        W27846  12.410   3.743   3.288 -0.0507  0.0249 -0.1850
24249W        W27847   1.280  14.255   0.919  0.2707 -0.1808 -0.1576
24250W        W27848   8.763   7.421   0.514  0.1631 -0.0582  0.0558
24251W        W27849  14.817  12.354  14.652 -0.0783  0.3022  0.1786
24252W        W27850   8.536  16.135  10.999 -0.0878 -0.1553  0.1206
24253W        W27851  12.291  13.954   9.490 -0.1602  0.2781 -0.1068
24254W        W27852   6.396  12.246   2.793  0.2400 -0.0566 -0.4443
24255W        W27853   3.300   3.488   1.501 -0.1703 -0.1309  0.0556
24256W        W27854  10.180   2.370  15.030 -0.4270 -0.0564 -0.4069
24257W        W27855   7.495  16.258   3.842 -0.0485 -0.3175 -0.2442
24258W        W27856  10.763   0.338  15.888 -0.0402 -0.0620 -0.0230
24259W        W27857   0.810   4.440   4.813 -0.0418 -0.1496  0.0935
24260W        W27858  11.931   2.273   6.125  0.2445  0.1767  0.0321
24261W        W27859  14.881   4.878   5.531  0.3121  0.2887  0.0242
24262W        W27860   4.269   2.845   1.850 -0.3481 -0.0089  0.1970
24263W        W27861   9.895  14.745  12.017 -0.0333  0.2064 -0.2252
24264W        W27862  13.363   3.973  14.594  0.1393 -0.0060  0.0708
24265W        W27863  11.987   4.152   6.046  0.4494  0.1243 -0.0802
24266W        W27864  13.214  10.801  13.538 -0.1621 -0.2949 -0.1883
24267W        W27865  14.994   0.428  15.293  0.0959  0.1550  0.3735
24268W        W27866   0.288  10.706  15.811 -0.3077  0.1114  0.0500
24269W        W27867   3.400  14.425   9.224 -0.0975  0.0219 -0.3378
24270W        W27868   3.484  15.855   4.732  0.3562 -0.2219  0.0491
24271W        W27869   2.013   6.225   6.830 -0.1092 -0.1240  0.3184
24272W        W27870  15.481  10.420   2.821 -0.0548  0.3719  0.1514
24273W        W27871   8.293   9.558  12.008 -0.1976  0.0620  0.1821
24274W        W27872   3.195  13.884   7.389 -0.0718 -0.3900  0.1076
24275W        W27873  12.124   4.333   2.115  0.0897 -0.2070 -0.1324
24276W        W27874   3.545   9.941   4.253  0.0172  0.3065  0.0599
24277W        W27875  10.128  14.701  15.618  0.1755  0.0160 -0.0676
24278W        W27876   2.756   0.185   7.108  0.0847  0.1603 -0.0307
24279W        W27877  15.222  14.607  14.540  0.0580  0.2650  0.4093
24280W        W27878   2.154  13.114   2.409  0.1242  0.2615 -0.1602
24281W        W27879   4.842   7.377  14.644  0.2998 -0.2733  0.2046
24282W        W27880  15.113  10.918   7.754 -0.0229 -0.0710  0.1281
24283W        W27881  12.994   7.209  11.331  0.3301  0.1389 -0.0662
24284W        W27882   8.126   5.903   0.740  0.1798  0.3047 -0.0157
24285W        W27883   3.797  13.883   4.434  0.3558  0.3472 -0.0906
24286W        W27884  12.684  12.000  10.921 -0.0220 -0.1858 -0.5569
24287W        W27885   3.194   8.644  14.023 -0.0448 -0.0963  0.0416
24288W        W27886   4.481   3.353   1.896  0.1321 -0.2099 -0.0736
24289W        W27887  11.062   8.341   6.501  0.1146  0.1507  0.0424
24290W        W27888   4.658   4.993  12.469  0.0738  0.2064 -0.1635
24291W        W27889   9.393  16.058  15.421 -0.1096  0.1772 -0.2769
24292W        W27890   3.420   1.264   1.134 -0.1027  0.0647  0.5421
24293W        W27891   8.397  15.784   7.011  0.2993  0.0799  0.0105
24294W        W27892  14.641  11.521  10.949 -0.1436  0.0258  0.1137
24295W        W27893  14.649  14.227   3.062  0.0394  0.0868 -0.0867
24296W        W27894   9.989  16.362   5.873 -0.2373 -0.2638  0.2918
24297W        W27895  13.889   7.237  10.276 -0.3440  0.0451  0.0142
24298W        W27896   9.709  13.901  13.850  0.1387  0.0702  0.1905
24299W        W27897   7.015  15.038  11.216  0.0525 -0.1712 -0.3187
24300W        W27898  16.316   3.636  13.001  0.3924  0.0584  0.0876
24301W        W27899  12.127  11.824  12.403 -0.2561  0.1145  0.2481
24302W        W27900  12.077   3.675  10.298 -0.0914  0.2109 -0.0235
24303W        W27901   2.898   3.444  14.928 -0.0785  0.0383 -0.1360
24304W        W27902   5.912   2.449   5.427  0.1651 -0.2220 -0.0182
24305W        W27903  15.005  10.940  14.603  0.2562 -0.0655 -0.0126
24306W        W27904   4.146   9.638  14.889  0.0214 -0.1533 -0.2163
24307W        W27905  15.457   7.610  15.795 -0.2606 -0.0759 -0.0212
24308W        W27906   4.290   2.160   0.570  0.1011  0.1671 -0.5621
24309W        W27907  10.451   4.898   7.891 -0.0432  0.1248 -0.2016
24310W        W27908  13.285  16.242  12.234 -0.2313 -0.1983 -0.1285
24311W        W27909  16.179   1.683   9.133 -0.2904  0.1341 -0.1560
24312W        W27910  13.175  10.533  13.042  0.0887  0.2610  0.0528
24313W        W27911   9.338  14.080   7.527  0.0918 -0.1732 -0.2189
24314W        W27912   6.503   3.592   8.171 -0.1144  0.3652 -0.0585
24315W        W27913   2.569   0.807  15.920 -0.1801  0.0364 -0.1674
24316W        W27914   6.175   2.442   4.005 -0.0911  0.1173 -0.0146
24317W        W27915   9.557   3.792  13.402 -0.1940 -0.0305 -0.0651
24318W        W27916   7.373   0.629   3.809 -0.1849 -0.0340  0.0507
24319W        W27917  10.194   9.432   9.582 -0.0884 -0.1340 -0.0860
24320W        W27918  14.646   5.655   5.978 -0.2739  0.0940 -0.0860
24321W        W27919  13.246  12.583   5.557  0.1916  0.1548 -0.0607
24322W        W27920   0.140   8.410   2.560  0.1979  0.1492 -0.1576
24323W        W27921  15.770   8.972   0.410 -0.1943 -0.0801  0.0454
24324W        W27922  12.940  15.243   4.382  0.0520  0.0146 -0.0683
24325W        W27923   9.694   9.614  10.496  0.1825  0.1920  0.0732
24326W        W27924  15.277   6.766  15.576  0.2262 -0.0330 -0.0395
24327W        W27925   7.327   2.417   7.694  0.0298  0.3026  0.2000
24328W        W27926   4.164   4.722  14.448 -0.1208 -0.0667 -0.0297
24329W        W27927   7.003  15.802   1.928 -0.0036 -0.0384  0.1243
24330W        W27928   4.787  14.753   6.392 -0.3128  0.1247  0.1336
24331W        W27929  15.127  15.501  15.944 -0.1685  0.1104  0.1212
24332W        W27930   5.235  10.120   9.377  0.0910 -0.0083  0.0634
24333W        W27931  12.767   3.011  15.556  0.2100 -0.0658 -0.2327
24334W        W27932   3.646   0.621   1.975 -0.1250 -0.0182 -0.1291
24335W        W27933  12.844  14.381   6.862  0.0761 -0.2371  0.2572
24336W        W27934  10.151  15.811   1.938  0.1854 -0.2570 -0.5101
24337W        W27935  11.839  13.028   0.969  0.1252 -0.1835  0.1474
24338W        W27936   4.053   6.135   1.861 -0.2879  0.0170 -0.1357
24339W        W27937   8.074   0.991   0.880  0.1333  0.2749  0.2100
24340W        W27938  11.126   8.971   2.525  0.1290 -0.2538 -0.2424
24341W        W27939   6.465  15.829  11.110 -0.4007  0.0212 -0.1309
24342W        W27940   9.801   4.743  14.987 -0.2262 -0.1760 -0.0782
24343W        W27941   6.149   2.951   9.751 -0.0308 -0.1044 -0.0742
24344W        W27942   2.959   0.824   9.794  0.0512  0.0475 -0.2756
24345W        W27943   4.898  14.515  14.033  0.0050 -0.0052 -0.1587
24346W        W27944   9.513   4.114  12.004  0.2833 -0.0615  0.1456
24347W        W27945   4.445   8.717   6.492 -0.0131  0.1438  0.0750
24348W        W27946   1.645  12.245   8.165 -0.0727  0.0868  0.1669
24349W        W27947   9.633   5.711   8.777  0.0820  0.1036 -0.2502
24350W        W27948  15.571   6.321  15.022 -0.2238 -0.1213  0.0422
24351W        W27949   9.615   0.393  14.177 -0.1765 -0.2755 -0.0931
24352W        W27950  12.244   0.432   4.477  0.1564 -0.0241 -0.2223
24353W        W27951   3.606   0.843   2.892 -0.1098 -0.1164  0.1904
24354W        W27952   2.975   5.045   2.669 -0.2168  0.1122  0.0789
24355W        W27953   8.906   1.433   3.975 -0.3097  0.1327 -0.1965
24356W        W27954  13.598  13.959   6.331  0.1047  0.0016 -0.0419
24357W        W27955  14.626  12.680   1.413  0.2295 -0.0850 -0.0961
24358W        W27956   2.234  13.500   7.427 -0.2947 -0.2531  0.2152
24359W        W27957   0.344   6.297   6.496  0.1684 -0.0418  0.1615
24360W        W27958   9.485  15.987  14.718 -0.3795 -0.1583  0.2954
24361W        W27959   3.179   7.470   9.297  0.0134 -0.1600 -0.0113
24362W        W27960   0.177  14.676   3.303  0.0126  0.2723  0.0688
24363W        W27961   6.200   1.234   5.618 -0.1318  0.1272  0.1781
24364W        W27962  14.756  13.855  10.683 -0.1867 -0.3164  0.3101
24365W        W27963  13.052  14.866   3.195  0.0192 -0.2687  0.3814
24366W        W27964  15.130  11.983   1.789  0.3731  0.0330  0.0469
24367W        W27965  11.924  10.500   1.314 -0.1128 -0.1128 -0.2906
24368W        W27966  12.936   3.395   9.711 -0.1147 -0.3542 -0.0064
24369W        W27967   3.361   3.097   0.577 -0.1775  0.1783 -0.2220
24370W        W27968  10.001  10.494  15.806 -0.0530 -0.0715 -0.1236
24371W        W27969   1.011   4.255   0.922  0.1233  0.0827 -0.1406
24372W        W27970  12.298   6.387   2.154 -0.2621 -0.1260 -0.1001
24373W        W27971  12.559   2.472   6.285  0.0735 -0.1400 -0.2433
24374W        W27972   4.302   1.421   6.924  0.1898  0.0602  0.1764
24375W        W27973  11.349   0.450  13.825 -0.1342 -0.2604 -0.1307
24376W        W27974   4.554  11.681   5.131 -0.1208 -0.2658  0.3772
24377W        W27975   1.548   8.898   7.540  0.1630  0.0343 -0.0658
24378W        W27976   5.378   8.731   1.519 -0.1120  0.0762 -0.0929
24379W        W27977  16.072  14.581   0.032  0.0245  0.1431 -0.1730
24380W        W27978   4.264  10.452  11.787 -0.0565 -0.0120 -0.1272
24381W        W27979  15.737  16.196   9.061  0.1122 -0.3262 -0.0908
24382W        W27980  11.206  11.888   1.859  0.0832  0.1243  0.0672
24383W        W27981   1.292   2.969   2.669  0.0775 -0.0682  0.0106
24384W        W27982   7.464  13.710   1.813 -0.0951  0.0482 -0.1281
24385W        W27983   6.603  11.175  14.480  0.3263 -0.0481 -0.0890
24386W        W27984  11.424  11.988  11.824 -0.2425 -0.2025 -0.1066
24387W        W27985   6.628   7.774   0.544 -0.0251 -0.2715 -0.0377
24388W        W27986   5.310   1.836   0.680  0.2308 -0.1058 -0.2749
24389W        W27987   1.910   2.041   1.818 -0.0248  0.1254  0.1503
24390W        W27988  13.888  15.126  16.372 -0.0790 -0.1133  0.0970
24391W        W27989   3.687  16.001   0.312  0.1566  0.1002 -0.1121
24392W        W27990   7.740   9.815   8.912 -0.0533  0.0485  0.0982
24393W        W27991   2.975  11.029   3.987  0.0312 -0.0517  0.0006
24394W        W27992   0.308   9.972   5.128 -0.1993 -0.2257 -0.0404
24395W        W27993   6.967   6.631  11.414 -0.4257 -0.0878  0.2160
24396W        W27994  14.875  14.052   4.379  0.0336  0.0675 -0.4446
24397W        W27995  11.480  15.642  15.301 -0.3531  0.1431  0.2722
24398W        W27996   8.214   5.916  15.222 -0.0240  0.0619  0.1080
24399W        W27997  10.346  11.602   4.922 -0.0111  0.0422 -0.2621
24400W        W27998  12.697   5.007   3.224 -0.1490 -0.0146  0.1333
24401W        W27999  13.582   9.874   1.808 -0.1210 -0.0734  0.1015
24402W        W28000  10.440   5.770  11.684 -0.2455 -0.1364  0.2217
24403W        W28001  16.103   9.141   7.153 -0.0532 -0.2633  0.0425
24404W        W28002  11.736  10.495   5.261 -0.0813 -0.1740 -0.3334
24405W        W28003   5.567  11.967  13.771  0.1122 -0.0976  0.0787
24406W        W28004  14.419  11.534   6.866 -0.1781 -0.2068 -0.4611
24407W        W28005   7.983   7.652   4.387 -0.2039 -0.0900  0.0048
24408W        W28006   8.372   6.162   4.206 -0.1889  0.2875  0.2455
24409W        W28007   3.613  12.309  12.149  0.0105 -0.2120 -0.1311
24410W        W28008  13.818  14.163   0.331  0.0573  0.2832  0.3393
24411W        W28009  15.685   6.007   2.829 -0.0562  0.0005  0.0271
24412W        W28010   4.103  11.263   6.605 -0.1164  0.3497  0.0300
24413W        W28011   8.353   3.170   6.272  0.3861  0.1117 -0.1124
24414W        W28012   0.863   1.197   0.787 -0.1177 -0.1666  0.0825
24415W        W28013   8.794   5.779  13.107  0.1894 -0.0035  0.2762
24416W        W28014  12.991  15.232  15.359 -0.0332 -0.1843  0.0171
24417W        W28015  14.882   7.802   6.556 -0.2145 -0.3004 -0.0956
24418W        W28016   4.237   7.392   2.380 -0.0256  0.1579  0.1180
24419W        W28017  13.754  12.998  15.390  0.1016  0.0571  0.0748
24420W        W28018   4.408   9.056   7.725  0.0033  0.0525 -0.3629
24421W        W28019   4.081   3.434  14.004  0.1303 -0.5228  0.3161
24422W        W28020  14.269   5.676   1.110  0.0578  0.0084 -0.0245
24423W        W28021   0.117   4.677   2.486 -0.1370  0.1185  0.0819
24424W        W28022   1.299   7.679   1.175  0.2333  0.0505  0.3189
24425W        W28023  15.095   2.413  11.475 -0.1964 -0.0480 -0.3130
24426W        W28024  13.585   7.894  14.016  0.0959 -0.0171  0.1801
24427W        W28025   2.877   1.416   3.020  0.3101  0.2433  0.1605
24428W        W28026   4.941   7.250  10.471  0.2537  0.0580  0.1459
24429W        W28027  10.307   8.524   2.957 -0.0023 -0.1533 -0.1284
24430W        W28028   0.211  14.011   6.844  0.1913 -0.1957 -0.3209
24431W        W28029  12.216   6.308   3.266 -0.1863  0.0818 -0.1637
24432W        W28030  10.591   8.516   9.101  0.0581  0.0025  0.0861
24433W        W28031   9.431   6.151   0.394 -0.0388  0.0858 -0.3168
24434W        W28032  15.196  10.268   6.572 -0.0462 -0.3118 -0.2050
24435W        W28033   7.686  16.253   2.880 -0.1743  0.0366  0.0392
24436W        W28034   6.338   1.476   1.899 -0.1927 -0.0940 -0.3945
24437W        W28035   5.782   7.558   2.808 -0.0786 -0.0519  0.0400
24438W        W28036   0.695   8.147   5.832 -0.1413 -0.2412 -0.2848
24439W        W28037   4.900   5.747  11.805 -0.1859  0.1899 -0.1641
24440W        W28038  11.385  14.687  10.040  0.1471 -0.0550  0.1503
24441W        W28039   3.980  10.707   6.440 -0.2045  0.0559  0.0533
24442W        W28040  10.519   3.631  15.607  0.1037  0.3483 -0.1774
24443W        W28041   0.948  14.341  10.594 -0.1199  0.1359  0.0098
24444W        W28042   7.540   9.574  15.414  0.1673  0.0110 -0.0647
24445W        W28043  10.756   7.590   0.154 -0.5360  0.0360 -0.0873
24446W        W28044  14.319   9.297   9.817 -0.0961 -0.2612 -0.0624
24447W        W28045  14.836  12.921   8.253 -0.0558 -0.2981 -0.1333
24448W        W28046   9.197   9.440  13.581 -0.1314 -0.1898 -0.1354
24449W        W28047   7.482  10.284   5.586  0.4743  0.1018 -0.0821
24450W        W28048   7.541  13.571   6.776  0.0110  0.0357  0.2225
24451W        W28049  15.601  15.983   6.205  0.2673 -0.3465  0.1129
24452W        W28050  13.355   2.541  15.946  0.2664  0.4731  0.0558
24453W        W28051   9.994   0.165  10.085 -0.1591 -0.0131 -0.0086
24454W        W28052   4.681   8.455   3.872 -0.2879  0.1027 -0.0939
24455W        W28053   7.250  11.133   0.757 -0.0463 -0.2712  0.3094
24456W        W28054   5.018  15.495  12.318  0.0331  0.0087  0.2900
24457W        W28055   6.748   1.996   9.670  0.3519 -0.1792 -0.0961
24458W        W28056   1.658   0.903   0.078  0.2564 -0.1149 -0.1945
24459W        W28057   3.004  11.911  11.620 -0.1023  0.1192  0.3152
24460W        W28058  12.340  14.159  12.880  0.0512 -0.4405  0.1445
24461W        W28059   0.057   6.687  13.055 -0.0305 -0.0562 -0.2243
24462W        W28060   7.764   8.000   5.475  0.0402 -0.1926  0.3269
24463W        W28061  13.751  10.192   3.437 -0.1227 -0.1196  0.1323
24464W        W28062  14.183  13.018   9.453 -0.1528 -0.1195 -0.1135
24465W        W28063   7.927   3.777  13.236  0.0587  0.2619 -0.2814
24466W        W28064   1.391   6.125   3.799 -0.0511  0.1817 -0.2197
24467W        W28065  13.627  14.753   2.051  0.1903  0.0349 -0.2545
24468W        W28066   9.390  10.636  14.491 -0.2255 -0.0395 -0.1999
24469W        W28067   4.728   9.378   9.025 -0.2640 -0.1516  0.0884
24470W        W28068  12.278   1.775   9.946 -0.0808 -0.0502  0.2253
24471W        W28069  10.644  11.128   5.654  0.1800  0.0674 -0.4209
24472W        W28070  16.332   2.207   6.116 -0.3736  0.0657  0.3758
24473W        W28071  15.250   5.982   4.902  0.0602 -0.2367 -0.1939
24474W        W28072   2.414  13.064  15.499  0.1993  0.4501 -0.3040
24475W        W28073  10.607   0.589   9.333 -0.2772 -0.0014 -0.0014
24476W        W28074   8.300   5.285   5.020  0.0016  0.1696 -0.0025
24477W        W28075   9.769  12.318  10.959 -0.3896 -0.2221  0.1176
24478W        W28076  14.975   4.156   2.543 -0.0106  0.0173  0.1675
24479W        W28077   0.209  14.500  11.880 -0.2198  0.3206  0.0379
24480W        W28078  15.200   1.109  10.726  0.3043 -0.0211  0.0088
24481W        W28079   0.561  11.367  15.115 -0.2300  0.0733 -0.1684
24482W        W28080   4.466  12.557   8.268 -0.1570  0.2357  0.0472
24483W        W28081  14.019  15.859   5.604 -0.0229 -0.0994 -0.1150
24484W        W28082  11.761   5.984  11.936 -0.1242  0.0190  0.0157
24485W        W28083  10.486  15.408  10.820 -0.1096 -0.3617  0.2302
24486W        W28084   4.690  11.001  16.095  0.0303  0.2235  0.0554
24487W        W28085  15.551  14.956  10.308  0.1017  0.3832  0.3339
24488W        W28086   0.768  10.759  10.117  0.0946 -0.2895  0.1305
24489W        W28087   0.781   5.424   6.524  0.1620  0.1513  0.1626
24490W        W28088   4.946   9.100   6.092  0.0507 -0.0316  0.0963
24491W        W28089   3.042   1.039   5.907 -0.1738  0.1380 -0.1283
24492W        W28090  12.681   7.645  14.468 -0.2555 -0.1842 -0.3333
24493W        W28091  10.111   0.182   7.753  0.0373  0.3881  0.4683
24494W        W28092   4.722   4.045  15.150  0.1585  0.0887 -0.0956
24495W        W28093  12.676   7.196   3.619  0.0457  0.1178 -0.1409
24496W        W28094  14.876   0.064   4.985  0.5728  0.3824 -0.2299
24497W        W28095  10.459   0.950   1.683  0.3407 -0.0759 -0.2806
24498W        W28096  12.581   6.783   2.755  0.0760  0.2781 -0.0061
24499W        W28097   3.405   7.109  10.520  0.0102  0.0926  0.0102
24500W        W28098  13.590   7.588  16.138  0.0749  0.1931 -0.0697
24501W        W28099  13.933  11.009  10.595 -0.1996  0.0755  0.0971
24502W        W28100   7.611   2.659   4.163 -0.0072 -0.2359 -0.3098
24503W        W28101   8.096   8.145   0.930  0.2454  0.1159  0.2869
24504W        W28102  10.733   7.022  14.147 -0.0004  0.2051  0.0043
24505W        W28103   9.573  13.339  15.437 -0.3401 -0.0926 -0.2270
24506W        W28104  14.989   5.259  13.114 -0.1046 -0.1936 -0.2811
24507W        W28105   1.356   3.744   9.047  0.0191  0.0339 -0.0183
24508W        W28106   5.032  10.477  15.390  0.1142  0.0543  0.0228
24509W        W28107   2.896   7.496   9.831  0.0437  0.1823 -0.1848
24510W        W28108  12.476  10.670   8.481 -0.4263 -0.1424  0.2046
24511W        W28109   9.247   8.729   6.457 -0.1014 -0.2260 -0.2802
24512W        W28110  12.990   0.117   7.364  0.0838  0.1633 -0.2499
24513W        W28111   0.186  10.273  13.782 -0.0895 -0.1023  0.2527
24514W        W28112   6.177   1.146   2.299 -0.0305  0.1335 -0.0922
24515W        W28113  10.741  11.085   7.284  0.1717  0.1880 -0.2956
24516W        W28114   5.607   3.336   9.690 -0.0953 -0.1153 -0.0950
24517W        W28115   7.987   4.357   6.739  0.1806 -0.2432 -0.0768
24518W        W28116  11.117  14.729   1.828  0.0726  0.2076  0.1958
24519W        W28117   7.102  12.258  11.673  0.3431 -0.2348  0.2886
24520W        W28118   5.945   8.727  10.731 -0.0529 -0.0479  0.0694
24521W        W28119   2.549   8.963   1.058  0.3243 -0.3390 -0.0287
24522W        W28120  15.325   0.357  12.870 -0.0718  0.0583 -0.1282
24523W        W28121   7.108  12.740  16.235  0.2211  0.0351  0.1174
24524W        W28122   5.021   1.432  11.017 -0.1808 -0.2668 -0.2963
24525W        W28123   4.151   2.723   0.427  0.1536  0.0330  0.1084
24526W        W28124   0.658   5.567  11.279 -0.0423  0.0613  0.1683
24527W        W28125   2.678   4.804   6.057 -0.1137 -0.0166 -0.1093
24528W        W28126   6.739   8.361   2.197  0.1776 -0.0453 -0.0628
24529W        W28127  11.289   0.735   6.512  0.3389  0.0845  0.0039
24530W        W28128  15.884   3.404  14.990 -0.1366  0.0796 -0.1944
24531W        W28129   8.785  14.622   5.348  0.3279  0.0252  0.1847
24532W        W28130  14.995   3.090   8.723  0.5169  0.1625  0.2518
24533W        W28131   0.401   3.300   2.914  0.1590 -0.1371  0.1278
24534W        W28132  12.859   0.182   4.340  0.2548 -0.2364  0.1393
24535W        W28133  10.154   1.251   3.228 -0.1760 -0.2067  0.1157
24536W        W28134   5.936  15.037  13.882 -0.0890 -0.2587 -0.0471
24537W        W28135   6.138  15.650   8.162 -0.3086 -0.0776  0.0649
24538W        W28136   7.570   4.912   1.406 -0.2440 -0.1896 -0.0574
24539W        W28137   4.065  13.055   9.941 -0.0803  0.0767  0.2438
24540W        W28138   7.984   4.374   4.406  0.0007 -0.1055  0.0471
24541W        W28139   5.238  13.071   8.057 -0.0731 -0.3308  0.2894
24542W        W28140  15.879   0.575   6.915  0.0946  0.2703  0.1293
24543W        W28141  11.680   9.546  10.105 -0.1858 -0.0460  0.1151
24544W        W28142   2.768   7.584   2.469 -0.0663  0.1735  0.0739
24545W        W28143   5.389   3.486   4.699 -0.2359  0.0065 -0.0207
24546W        W28144   9.632   5.305  14.836  0.1444 -0.1643  0.1471
24547W        W28145   2.510   6.795   9.722  0.0956  0.1753  0.1219
24548W        W28146  14.684  12.969   9.365 -0.1841 -0.0299 -0.1502
24549W        W28147   8.070   7.780  15.395 -0.0493  0.1088 -0.0902
24550W        W28148   8.533   1.520   0.482 -0.1233  0.0177 -0.1549
24551W        W28149   1.787  12.253  14.846 -0.0096 -0.0355  0.2082
24552W        W28150  13.907   1.694   6.589  0.0208 -0.2438 -0.2846
24553W        W28151   4.973   6.327  11.246 -0.1879  0.0186 -0.0327
24554W        W28152   1.684   0.362   2.087  0.0319 -0.2343 -0.2461
24555W        W28153   1.178   2.931   9.759  0.1406  0.1882  0.2861
24556W        W28154   2.353   2.819   6.413  0.1383 -0.1540  0.0949
24557W        W28155   4.951   5.021   3.191  0.0231  0.5339 -0.0335
24558W        W28156  14.572  10.784  15.761 -0.0187  0.4129 -0.0681
24559W        W28157   0.758  15.957   1.352 -0.0071 -0.0180  0.1862
24560W        W28158   2.956  11.624  12.174 -0.1608  0.3109  0.3704
24561W        W28159  11.562   2.451   9.892  0.4663  0.1098  0.0523
24562W        W28160   4.397   9.232   0.628 -0.2408  0.4947  0.2608
24563W        W28161  10.991  11.529  10.833 -0.0297 -0.0432  0.3528
24564W        W28162  13.640  16.038  10.218 -0.0392 -0.1787  0.1782
24565W        W28163  10.091   3.344   6.670 -0.4711  0.2531  0.1545
24566W        W28164   6.205  11.318   3.345  0.1360  0.3086  0.0861
24567W        W28165   3.460   9.557   9.556  0.0447  0.2360 -0.0233
24568W        W28166   3.022  10.729  15.281  0.0701  0.2143  0.1584
24569W        W28167   3.714  11.152   1.145 -0.0592 -0.0763 -0.0861
24570W        W28168   3.932  12.974   7.696  0.0281 -0.2372  0.1099
24571W        W28169  10.603   6.018  12.098  0.3637  0.0605  0.0977
24572W        W28170  15.196   0.406  14.087  0.0436 -0.0343  0.0926
24573W        W28171  13.589   2.694   1.671 -0.2925  0.2361  0.0384
24574W        W28172   2.186   8.682   4.847 -0.1574 -0.0529  0.2044
24575W        W28173   5.991   5.453  10.474 -0.1204 -0.1741  0.0638
24576W        W28174  15.597   6.754  14.610  0.1295  0.2751  0.1655
24577W        W28175   6.534   4.084   2.921  0.1983  0.0467 -0.3432
24578W        W28176  13.136  12.172   8.529  0.0566  0.0286 -0.1142
24579W        W28177   0.943   4.605   9.025  0.2207 -0.1052 -0.0609
24580W        W28178   3.346   0.706  10.867 -0.0999  0.0224 -0.1061
24581W        W28179  15.263  14.014  12.133  0.0107 -0.2037 -0.1356
24582W        W28180   0.300   8.126   9.243 -0.0542  0.0319  0.1128
24583W        W28181   7.061   8.693  15.573  0.1546 -0.2716 -0.0361
24584W        W28182  11.367   9.023  14.805  0.1697 -0.1268  0.2898
24585W        W28183   0.709  16.258   2.952 -0.1632 -0.1968 -0.2344
24586W        W28184   6.155   1.257  15.974 -0.0025  0.1185  0.0543
24587W        W28185  15.688   5.187   0.121 -0.0279 -0.0807 -0.1035
24588W        W28186   4.182  11.269   8.951  0.2287 -0.2946 -0.1188
24589W        W28187   3.304   2.042   2.383  0.0128 -0.0341  0.2119
24590W        W28188   5.190  11.194   7.197  0.1907 -0.0671 -0.1229
24591W        W28189  14.799   7.269   3.657  0.0884  0.3601  0.2320
24592W        W28190  13.375  10.663   6.151  0.0778  0.1929 -0.0919
24593W        W28191  13.709  11.294   3.535 -0.3354  0.1086  0.0446
24594W        W28192  11.328   1.051  14.998  0.0026 -0.0712  0.0522
24595W        W28193   4.588   2.068   0.192  0.2488  0.1905  0.2383
24596W        W28194   5.109   2.348   4.017  0.1148  0.0770 -0.0638
24597W        W28195  14.484   0.117   4.628  0.0850 -0.1149  0.1638
24598W        W28196   4.052  16.052   2.351 -0.4783 -0.1641  0.2340
24599W        W28197  15.877   0.495  13.357  0.0415 -0.1753 -0.0728
24600W        W28198   3.769   2.885   0.775  0.1238  0.2054  0.1072
24601W        W28199   8.036   7.366   0.328 -0.0422  0.0688  0.1606
24602W        W28200  15.367  13.061   8.163 -0.0133  0.1610 -0.1435
24603W        W28201   8.047  11.529   5.715  0.0104  0.3239  0.0759
24604W        W28202   6.715   1.388   2.527  0.3403  0.1839  0.0821
24605W        W28203  12.252   0.117   3.371  0.1124 -0.2733 -0.1719
24606W        W28204   0.824   3.089   9.443  0.0248  0.2111 -0.0562
24607W        W28205  12.350   9.278   1.138 -0.0352 -0.1158  0.2009
24608W        W28206  15.054  13.989  16.369  0.2264  0.2827  0.1211
24609W        W28207  13.088   2.122  13.607 -0.0937  0.3007 -0.0075
24610W        W28208   8.092   8.566   9.917 -0.1687  0.2698 -0.4149
24611W        W28209   9.537  14.826  16.392  0.1108 -0.0591 -0.2147
24612W        W28210  12.318   3.946   4.230  0.0401  0.1417  0.0106
24613W        W28211   0.957   7.263   5.602 -0.0170  0.0521 -0.0817
24614W        W28212   3.495   6.557   9.299 -0.3246 -0.2591 -0.0722
24615W        W28213  14.622   9.863  11.528  0.0905 -0.0862  0.0791
24616W        W28214   2.727   3.290  15.852 -0.1116 -0.1873 -0.0252
24617W        W28215  13.508   9.937   8.117  0.0898 -0.1375  0.0466
24618W        W28216  15.126   6.686   7.671  0.2308 -0.2110  0.3111
24619W        W28217  13.138   0.009  15.437 -0.1302 -0.1409  0.4952
24620W        W28218   7.227   6.372  11.772  0.0263 -0.1939  0.1785
24621W        W28219   8.969  12.536   1.521 -0.2190  0.0916  0.1172
24622W        W28220   2.640  10.271  11.783 -0.0964 -0.2479 -0.2695
24623W        W28221  15.567  12.668   1.116 -0.2237  0.4433  0.0653
24624W        W28222  11.809   0.170   0.355  0.2396  0.0984  0.3844
24625W        W28223   4.389   9.871   2.044 -0.0797  0.0872  0.0265
24626W        W28224   1.107  14.712   0.362 -0.0358 -0.1850 -0.0946
24627W        W28225   7.742  14.155  14.738 -0.2239  0.3748  0.1591
24628W        W28226   1.078   8.157   6.272 -0.2547 -0.2649 -0.0735
24629W        W28227   6.497   3.919   2.471  0.0147  0.0830  0.0121
24630W        W28228  11.148  13.976  15.789 -0.1338 -0.3154  0.1855
24631W        W28229   6.692   0.696   3.243  0.0447  0.2792  0.0587
24632W        W28230   9.692  14.174   1.456  0.1299  0.1612 -0.2700
24633W        W28231   3.611   7.961  12.964  0.1796  0.0219 -0.4284
24634W        W28232   0.724  13.849   5.695 -0.0984 -0.1801 -0.0676
24635W        W28233   7.802  13.596   4.348 -0.2408  0.0036 -0.4198
24636W        W28234   4.706  14.871  11.157 -0.0422  0.2378 -0.0723
24637W        W28235  16.032   2.252   5.074 -0.0055 -0.0994 -0.0548
24638W        W28236   6.919   0.853   2.533 -0.3140 -0.2140 -0.1562
24639W        W28237   7.318   8.378   5.502  0.1875  0.2343  0.0258
24640W        W28238  11.545  15.463  15.794  0.2149  0.0123 -0.0907
24641W        W28239  11.740  15.299   0.436 -0.0967 -0.0454  0.1785
24642W        W28240   0.681   7.841  12.708  0.1275  0.2873 -0.0781
24643W        W28241   4.833   9.749   8.196  0.1919  0.3763  0.1606
24644W        W28242   7.034   1.385  15.018 -0.0985  0.1679 -0.1692
24645W        W28243   7.927  11.583   9.895  0.1980  0.0452 -0.2778
24646W        W28244   4.040   1.678  11.767  0.2062 -0.1237  0.1381
24647W        W28245   0.324   5.346   4.418  0.1978  0.0707 -0.0867
24648W        W28246   9.691  16.230   1.653 -0.4093  0.0855  0.0553
24649W        W28247   9.255  11.542  12.662 -0.2077 -0.0753  0.3029
24650W        W28248  10.087   7.964  14.800  0.0888 -0.0477 -0.3006
24651W        W28249   7.497   8.966   3.727 -0.3404  0.1122  0.0362
24652W        W28250  10.061   9.498  12.480 -0.1745 -0.0512  0.1579
24653W        W28251   2.139   8.410  11.003  0.1585  0.0087  0.1843
24654W        W28252   9.582  15.013   8.812 -0.3276 -0.0759  0.1626
24655W        W28253   4.367  13.227   5.115 -0.1422 -0.1237  0.2821
24656W        W28254   1.327   0.162   1.170 -0.0717  0.0869  0.3355
24657W        W28255   8.770  16.233   9.046  0.2958 -0.1552 -0.2518
24658W        W28256   6.508   1.545  11.919  0.2937  0.0257  0.0487
24659W        W28257   1.825   1.349   9.621  0.0056  0.0222 -0.0766
24660W        W28258  11.089   4.731  11.498  0.4327 -0.3452 -0.0881
24661W        W28259  15.977   3.656   9.653  0.1303 -0.3344  0.0531
24662W        W28260   6.041  10.970  12.227  0.0964  0.1945 -0.3745
24663W        W28261  11.520  16.222   1.635 -0.1128 -0.0339 -0.4379
24664W        W28262  13.617   5.733  13.888 -0.2788  0.5082 -0.1453
24665W        W28263   9.613   0.603   8.418  0.0193 -0.0668 -0.2819
24666W        W28264   3.818   4.597   4.048 -0.1515 -0.0100  0.2651
24667W        W28265  10.941  12.223   2.238  0.0432 -0.3311 -0.0240
24668W        W28266  13.985   7.996   9.635 -0.0579  0.0076  0.0570
24669W        W28267  10.659   5.300   2.519 -0.3816  0.2112 -0.1483
24670W        W28268   1.997  16.080   3.045  0.0689  0.2780  0.1317
24671W        W28269   6.090  13.452   0.633  0.2467 -0.1549  0.1538
24672W        W28270   0.095   5.456  13.820 -0.2715 -0.1636  0.3136
24673W        W28271   0.162   5.531   8.359  0.0898  0.0709  0.0979
24674W        W28272  14.492   4.985  10.903  0.1169  0.0292 -0.1870
24675W        W28273   7.896   2.147  14.252 -0.1093  0.0449 -0.1692
24676W        W28274   1.885   1.606   7.198 -0.4167 -0.1657  0.0224
24677W        W28275  10.355   8.846  14.553 -0.2748  0.1892 -0.2815
24678W        W28276   6.210  12.586   6.239 -0.1398 -0.4010 -0.0725
24679W        W28277   0.393  11.172  13.373 -0.1408  0.0123  0.1785
24680W        W28278   2.479  15.838   9.802  0.0980  0.0668 -0.1283
24681W        W28279  12.553   7.067   9.114  0.2710  0.0566  0.0271
24682W        W28280  14.750   9.845  10.612 -0.0714 -0.1746  0.1116
24683W        W28281   9.820  13.287   7.491 -0.1474  0.0377 -0.2158
24684W        W28282   5.204  15.160   0.230 -0.3957  0.2775  0.0104
24685W        W28283   6.305   5.379  15.300  0.1911 -0.2144 -0.1781
24686W        W28284  14.938   4.550  11.415 -0.2816  0.1815  0.0552
24687W        W28285  14.620  13.815   2.738  0.2325  0.0782 -0.0600
24688W        W28286   2.076   9.005   2.482  0.2620 -0.0547  0.0965
24689W        W28287  14.025  15.326   1.142  0.0715  0.1445 -0.0429
24690W        W28288   7.840  11.694   6.684 -0.2366  0.2004 -0.0536
24691W        W28289  16.364   7.704   6.700 -0.0443 -0.3154 -0.0294
24692W        W28290  13.815   3.733  11.499  0.1313 -0.0141  0.2024
24693W        W28291  15.757   2.593   4.904  0.3028  0.3140  0.1031
24694W        W28292   3.770  13.449  13.416 -0.0871  0.1153  0.2473
24695W        W28293  15.763   6.926   1.825 -0.0022  0.0310 -0.3210
24696W        W28294   2.494   5.733   3.069  0.3792 -0.0210 -0.3394
24697W        W28295   0.426  12.113  15.904  0.1415 -0.2220  0.4719
24698W        W28296   0.471  13.906   3.526 -0.1328  0.0096 -0.1021
24699W        W28297   8.074  10.389  13.142 -0.1277 -0.0488 -0.1975
24700W        W28298  15.419  11.926  13.681 -0.1290 -0.3856 -0.2768
24701W        W28299  13.340   1.489   7.871 -0.0513 -0.1031 -0.2489
24702W        W28300   8.176   2.648  11.847  0.3393  0.1500  0.0179
24703W        W28301   1.092  16.315   6.838 -0.0179  0.1287  0.1571
24704W        W28302   6.487   2.198  14.825 -0.0939  0.2370  0.1026
24705W        W28303   5.210   7.010   8.389 -0.2980  0.3073  0.3140
24706W        W28304  10.462  10.045   3.807 -0.1507 -0.1521  0.2344
24707W        W28305   9.149  12.861  15.004 -0.3056 -0.0430 -0.0791
24708W        W28306   6.997   9.840  12.133  0.0491  0.1128  0.2200
24709W        W28307  11.092   1.459   8.294 -0.0720  0.0659  0.2455
24710W        W28308  12.835   1.343  12.248  0.1075  0.0899 -0.1238
24711W        W28309  15.858  11.929   7.541  0.0413 -0.2382  0.4973
24712W        W28310   4.516  11.666   6.219 -0.2065  0.1414 -0.0920
24713W        W28311  16.317  11.782   8.046 -0.1891 -0.2737  0.3546
24714W        W28312  14.924   9.519  15.328 -0.0937 -0.1000 -0.1942
24715W        W28313   5.408   7.125  11.451 -0.0673  0.1311  0.0586
24716W        W28314   5.596   9.145   4.820  0.2218  0.1714  0.0224
24717W        W28315   7.921  10.405  11.306 -0.0315 -0.1594 -0.0004
24718W        W28316  10.946  10.069   4.896  0.0897  0.2345 -0.0167
24719W        W28317   6.767  14.163   6.889 -0.0817  0.0736  0.0964
24720W        W28318  13.123  10.824  10.344  0.1530 -0.2533 -0.2427
24721W        W28319   1.759  10.873   1.315  0.1557  0.2866  0.2358
24722W        W28320   4.713  12.336  14.173  0.4476 -0.0916 -0.3090
24723W        W28321   7.102   5.473  15.590 -0.0750  0.1730 -0.0753
24724W        W28322   1.502   5.855  10.518 -0.0025  0.0423  0.1205
24725W        W28323   7.539   2.864   6.133 -0.0798 -0.1335 -0.0027
24726W        W28324   6.292   7.846   8.725 -0.0616 -0.2006  0.0551
24727W        W28325  16.369  15.142   9.127 -0.1238  0.0181  0.1804
24728W        W28326  11.279   3.301   2.824  0.1861 -0.0826 -0.1145
24729W        W28327   9.035  14.340  12.700  0.1413 -0.1775 -0.0169
24730W        W28328  13.620  15.570   8.899 -0.4604  0.1151  0.0490
24731W        W28329   4.042   7.219   3.742 -0.1871  0.3656  0.1531
24732W        W28330  14.485   2.358   0.201 -0.0687 -0.1596 -0.0206
24733W        W28331   8.887  15.463  10.309  0.0678  0.4478  0.0710
24734W        W28332   4.293   7.481  11.514  0.1358 -0.1908  0.2375
24735W        W28333  12.006   6.534   7.859 -0.1821 -0.0659  0.0629
24736W        W28334  13.480   0.242  14.620  0.1141  0.2481  0.4588
24737W        W28335   1.224  14.970  12.520 -0.3317  0.2318 -0.2171
24738W        W28336   3.181  10.069  11.500 -0.2951  0.0706  0.1205
24739W        W28337  13.225   9.286   2.459 -0.3987  0.0494 -0.0438
24740W        W28338  11.096  12.535  14.618 -0.2146 -0.0240 -0.1006
24741W        W28339   1.843   7.591  16.008  0.1090 -0.0281  0.0967
24742W        W28340   6.202  10.094   6.896 -0.2579  0.0900 -0.2406
24743W        W28341   9.232   3.485  14.960  0.1276  0.0705  0.0954
24744W        W28342   4.767   7.691  15.235 -0.0303  0.2306  0.0842
24745W        W28343   3.390   2.259   8.991 -0.0949  0.1103  0.0265
24746W        W28344  15.388   1.761  15.900 -0.2681 -0.1647  0.0975
24747W        W28345   6.271   6.176  12.521 -0.2140  0.1898 -0.2599
24748W        W28346  15.546  12.991   6.246 -0.1158 -0.0337 -0.0223
24749W        W28347   6.102   5.795   9.173  0.1711  0.0572  0.1592
24750W        W28348  14.452   3.420   0.329 -0.1900 -0.0722 -0.0782
24751W        W28349  15.493   8.934   7.440 -0.0224  0.1209  0.1024
24752W        W28350   7.376  10.222   0.533 -0.0016  0.2181 -0.3245
24753W        W28351  10.405   7.988   5.448  0.4386  0.0212 -0.4009
24754W        W28352  14.454  15.764  15.041 -0.1041  0.0168 -0.3366
24755W        W28353   5.801   7.065  13.702 -0.1309  0.1104  0.0358
24756W        W28354   1.854   9.741   9.060  0.2483  0.0178  0.0743
24757W        W28355  16.254   6.683  14.368  0.0918  0.0586 -0.4054
24758W        W28356  14.192   2.868   3.212 -0.0910  0.0872  0.0353
24759W        W28357  11.385   3.476   6.923  0.0186 -0.1913  0.4488
24760W        W28358   5.520   3.880   5.570  0.1539 -0.2018  0.2660
24761W        W28359  12.485  11.814   3.538 -0.2086 -0.0585 -0.1782
24762W        W28360   9.919  11.193   9.185  0.1457 -0.1909  0.1743
24763W        W28361  11.572  14.639  13.807 -0.0064 -0.1287 -0.0504
24764W        W28362   7.125   8.761   5.735  0.1933 -0.5040 -0.1098
24765W        W28363   3.713  13.914   2.662 -0.1505 -0.0381 -0.0063
24766W        W28364  15.779   3.867   5.406 -0.1674 -0.1558 -0.1550
24767W        W28365  12.885  10.059   7.211 -0.3285  0.3119 -0.1000
24768W        W28366   0.946   5.602   2.200 -0.0974  0.1174  0.5104
24769W        W28367   9.147  12.156   9.759  0.0428  0.1528  0.2259
24770W        W28368  13.631   1.839  12.694 -0.1974 -0.3534  0.0729
24771W        W28369   5.554   8.720  12.525  0.0153  0.1823  0.1690
24772W        W28370  11.064  15.055  10.087  0.1211  0.0311  0.1263
24773W        W28371   1.367   2.340   7.347 -0.0886 -0.0713  0.0407
24774W        W28372   8.901   6.961   7.755 -0.5320 -0.0167 -0.0064
24775W        W28373  11.798  14.676  11.637  0.0369  0.0241 -0.0801
24776W        W28374   4.071  11.256  13.234  0.0231 -0.3619  0.0703
24777W        W28375   6.357   9.124   7.366  0.1658  0.1086 -0.0643
24778W        W28376   6.587   5.935   0.318  0.0025 -0.1438 -0.4221
24779W        W28377  12.562  15.393   0.983  0.0324  0.1065  0.3563
24780W        W28378   1.794   3.803   8.828 -0.1226  0.3298 -0.0821
24781W        W28379  10.322  13.899   9.578 -0.1127 -0.2190  0.4796
24782W        W28380  12.915  11.809   1.311  0.2664  0.0206  0.3289
24783W        W28381   6.890   8.855   4.853 -0.3463 -0.4572 -0.3842
24784W        W28382  14.022   5.114  13.902 -0.0464 -0.3679 -0.0463
24785W        W28383  10.134   5.344  13.091 -0.1794  0.2199  0.1028
24786W        W28384   9.717   0.055  11.461 -0.1083 -0.0160  0.0116
24787W        W28385   5.165  14.109   6.753  0.0851 -0.0286 -0.4422
24788W        W28386   9.644   6.649  14.004 -0.0442  0.0138  0.1233
24789W        W28387  11.100  12.822   5.695  0.2410 -0.0873  0.1821
24790W        W28388   8.849   4.876   5.834  0.0092 -0.2455 -0.1463
24791W        W28389  13.213  15.322  11.844 -0.2313 -0.0014 -0.1655
24792W        W28390  11.896   6.871   1.402 -0.1261 -0.1528  0.3265
24793W        W28391  13.004   1.881   1.589 -0.0035 -0.0339  0.3180
24794W        W28392  10.928   6.675  12.747 -0.4039  0.2420 -0.4862
24795W        W28393  14.604   5.309   1.058  0.1554  0.3889  0.1822
24796W        W28394  12.040  14.082   7.094  0.1245 -0.2113  0.2492
24797W        W28395   6.930  11.924  14.000 -0.1023 -0.0581  0.1457
24798W        W28396   9.280   9.472   8.460 -0.0965 -0.0087 -0.1903
24799W        W28397   2.233  11.922   9.860  0.1865 -0.0399  0.0539
24800W        W28398   5.632   0.735  14.835  0.0307 -0.1080 -0.1022
24801W        W28399  15.180   1.752   5.268 -0.3029  0.0693  0.1220
24802W        W28400   4.572  13.468   2.614 -0.1118 -0.1773 -0.0577
24803W        W28401   5.291  14.649  11.286  0.1345 -0.1644  0.1585
24804W        W28402   2.387  16.030   1.271 -0.1103 -0.0951 -0.0034
24805W        W28403   0.479   5.868   4.664  0.2690 -0.1874  0.1375
24806W        W28404   6.765  13.808   1.116  0.0852 -0.3148 -0.3350
24807W        W28405   9.994   6.052   2.269  0.2820 -0.3927 -0.2008
24808W        W28406   7.649  11.586   4.543  0.0552  0.0244  0.2880
24809W        W28407   5.558  10.773   6.210 -0.2359  0.2839  0.2755
24810W        W28408   7.185  12.759   0.338  0.0786 -0.2127 -0.0860
24811W        W28409  14.700  11.763  11.594  0.1193 -0.0124  0.1486
24812W        W28410  10.658  10.514   0.886  0.0293  0.0541 -0.1947
24813W        W28411   4.685  11.312  11.679 -0.2147  0.1491 -0.0491
24814W        W28412   8.620  14.714  14.308 -0.0698 -0.2263 -0.0147
24815W        W28413   4.877   7.023   3.016  0.5227  0.1001 -0.1477
24816W        W28414   0.644  15.491   0.852 -0.1114 -0.4374  0.1895
24817W        W28415   5.686   8.346   3.605 -0.0733  0.0981  0.0210
24818W        W28416   6.207  10.668  15.167  0.2397 -0.2739  0.4675
24819W        W28417   5.411  15.173  13.066  0.1180  0.1752 -0.0534
24820W        W28418   7.928  15.099   7.173 -0.2043  0.0835 -0.3336
24821W        W28419   0.683   6.589   8.511 -0.0862  0.3513  0.2587
24822W        W28420   7.081   8.091   7.330 -0.2096  0.1174  0.0084
24823W        W28421  10.073   7.004   0.329  0.2239  0.0918  0.0318
24824W        W28422   3.271  12.354   2.119  0.0222  0.0723  0.3129
24825W        W28423   3.270   0.330  12.016  0.0923  0.0074  0.2816
24826W        W28424   0.789  14.490   1.779 -0.3568 -0.2819 -0.1596
24827W        W28425  13.247   1.253  13.632  0.0876 -0.1502 -0.2255
24828W        W28426   6.390  10.639   4.211  0.1099 -0.1199 -0.1236
24829W        W28427  12.821   7.799  15.224  0.0928 -0.0890 -0.0676
24830W        W28428   2.818   4.764   3.098 -0.3155  0.0387  0.2055
24831W        W28429   2.654   0.346  16.196  0.0574 -0.1949 -0.0515
24832W        W28430  13.162   7.481   4.325  0.0142 -0.3621 -0.0134
24833W        W28431  16.325   6.734   0.896  0.0563 -0.2431  0.1043
24834W        W28432  13.540   5.804   8.419 -0.2342  0.1559  0.1359
24835W        W28433   9.893   9.304   6.368 -0.2733 -0.5625  0.3374
24836W        W28434   3.943  15.199  12.627  0.2044  0.1747  0.1442
24837W        W28435  10.731   2.671  10.867  0.2292  0.1472  0.0032
24838W        W28436   7.327   4.426   5.237  0.2222  0.1352 -0.2078
24839W        W28437  13.416  15.411   4.587  0.0959  0.1767 -0.0143
24840W        W28438   4.928  10.282   6.331 -0.2564 -0.0856  0.1001
24841W        W28439  14.227  16.075  16.236  0.0117 -0.3053  0.4352
24842W        W28440   2.541  12.428   5.464  0.2984  0.0341  0.0072
24843W        W28441   0.305   6.857  16.345  0.0206  0.1358 -0.1114
24844W        W28442   0.350   9.539   8.242 -0.0326  0.1078 -0.1626
24845W        W28443  15.753   3.917   2.217  0.1892  0.1087  0.2317
24846W        W28444  11.123   2.910   8.616  0.0431  0.2393  0.1297
24847W        W28445  14.819  16.388   7.307  0.1838  0.0685 -0.4820
24848W        W28446   8.350   3.454  13.286 -0.0825 -0.0356  0.0215
24849W        W28447   6.229   7.674  13.482 -0.1479 -0.1663  0.0325
24850W        W28448  14.593   0.905  13.709 -0.1073 -0.1310 -0.1089
24851W        W28449  15.103   4.427  13.251  0.0109 -0.0272  0.0580
24852W        W28450   2.402   3.997   6.372 -0.0586 -0.0824  0.1932
24853W        W28451   2.110  13.701   3.215 -0.0092 -0.0464  0.2299
24854W        W28452  13.809   0.348  13.025 -0.1312 -0.3042  0.0545
24855W        W28453  11.157  14.584  14.671 -0.0151  0.2876 -0.2385
24856W        W28454  11.735  11.546   3.003 -0.2687 -0.0379 -0.0364
24857W        W28455  10.426   8.767  10.699  0.1881 -0.0395 -0.0280
24858W        W28456  16.073   1.104   0.122 -0.2257  0.0783 -0.2200
24859W        W28457   0.125   6.680  15.372 -0.2523 -0.2201  0.1948
24860W        W28458   0.634   1.916   5.558  0.1940 -0.3023 -0.0528
24861W        W28459   1.000   3.110   6.095 -0.1525  0.2183 -0.0166
24862W        W28460  11.818   0.234   1.647  0.1759  0.0402 -0.2760
24863W        W28461   4.251   9.713   7.071 -0.0735 -0.3636  0.1028
24864W        W28462   3.317  14.964   3.260  0.2561 -0.1326  0.1237
24865W        W28463   4.692   0.348   6.052  0.0088  0.0268  0.1541
24866W        W28464   4.511   7.123  14.368 -0.1648  0.1232 -0.3735
24867W        W28465   9.993  15.310  14.019  0.3974  0.0096 -0.1392
24868W        W28466  13.396  14.410   0.285  0.1579 -0.1596 -0.1368
24869W        W28467  13.945   9.355   5.647  0.3790  0.2875 -0.1048
24870W        W28468   4.444  15.992  14.637 -0.1454  0.1591 -0.2114
24871W        W28469  11.899   1.565  12.861  0.0604  0.0499  0.1313
24872W        W28470   1.400   0.227  10.900 -0.4754  0.1546  0.0413
24873W        W28471   1.886   3.795  11.998  0.3578 -0.2638  0.1511
24874W        W28472   7.667   8.627  12.904  0.0319 -0.0985  0.0485
24875W        W28473   1.692   0.095  10.451  0.2196  0.1422  0.1069
24876W        W28474   6.045   4.072   7.339 -0.1434 -0.1728  0.1558
24877W        W28475   3.769   7.505  15.358  0.1031 -0.2866 -0.2932
24878W        W28476  11.923   4.027   0.769  0.3166  0.1479  0.2152
24879W        W28477   0.847   9.022  11.322 -0.0656  0.2231 -0.1017
24880W        W28478   5.843  13.936  13.951  0.1622 -0.0553  0.2400
24881W        W28479  14.228   9.755   6.738 -0.3044  0.2255 -0.1614
24882W        W28480   6.797   2.428  10.561 -0.3306 -0.0796 -0.0742
24883W        W28481   1.799   9.373   0.117  0.0693 -0.1643  0.0973
24884W        W28482   3.217   4.804  12.674 -0.0545 -0.1378  0.1520
24885W        W28483   4.397   2.174   8.874  0.0521 -0.2752  0.0670
24886W        W28484  12.301  14.850  10.272 -0.0375  0.2575 -0.0590
24887W        W28485  13.246   3.077  15.686 -0.2778  0.1860  0.0733
24888W        W28486   0.161   3.261   3.349 -0.0527  0.0001 -0.0426
24889W        W28487  11.598   7.039   3.782  0.0263 -0.0230  0.2400
24890W        W28488   0.262   5.294   3.897 -0.1689  0.2518  0.0141
24891W        W28489   7.846  15.083   0.176  0.2406  0.1541 -0.2206
24892W        W28490   9.009   1.595   9.482  0.3271 -0.4182  0.2325
24893W        W28491   2.780   7.262   6.896 -0.2896  0.0196 -0.1461
24894W        W28492  11.894  16.162   8.367 -0.4433  0.1746  0.1505
24895W        W28493   7.741  10.705  15.272 -0.1609  0.0081  0.2439
24896W        W28494   0.405  11.109   3.346 -0.2126 -0.0753 -0.1220
24897W        W28495  15.502   7.087   9.203 -0.1485  0.0766 -0.1296
24898W        W28496  12.261   1.765  10.916  0.0146  0.0090  0.1344
24899W        W28497   3.020   2.632  14.381  0.3332 -0.4183 -0.0869
24900W        W28498  10.813   5.384  10.734 -0.1133  0.1282 -0.0940
24901W        W28499  13.011   9.659   3.640 -0.2324 -0.0409  0.0930
24902W        W28500  13.994   3.648  15.263 -0.1596  0.2843  0.4551
24903W        W28501   3.845   2.214  15.602 -0.0732 -0.0385 -0.0442
24904W        W28502   0.142  16.247  16.232 -0.1445 -0.0213 -0.4336
24905W        W28503   1.998   3.832  16.270  0.1499  0.0135 -0.0898
24906W        W28504   9.070   4.254  11.866  0.2113 -0.0113 -0.3054
24907W        W28505   8.248   2.991  13.500 -0.1408 -0.0097 -0.0563
24908W        W28506   4.832   7.353   8.413  0.0301 -0.2931  0.3300
24909W        W28507   2.786   5.504  11.236  0.1795 -0.2342  0.1013
24910W        W28508  11.027   5.495   6.717  0.1109  0.0521  0.0358
24911W        W28509   3.399  14.112   4.203  0.0640 -0.3069 -0.2359
24912W        W28510  10.919   0.376   5.768 -0.0257  0.0827 -0.1158
24913W        W28511   0.778   5.750   9.706  0.0481  0.0108  0.0099
24914W        W28512   6.085   3.045  10.734  0.2866  0.3622 -0.1592
24915W        W28513  15.815   5.347  16.047  0.0215  0.0925  0.1970
24916W        W28514  15.671   6.468   3.681  0.1786 -0.1051 -0.0192
24917W        W28515  10.807  11.318   6.224  0.1152  0.1451 -0.1248
24918W        W28516   8.099   2.457  10.989 -0.2089  0.2480  0.0645
24919W        W28517   5.753   2.511  14.412 -0.1711  0.4664 -0.3871
24920W        W28518   1.479  14.163   6.364  0.0060  0.5215  0.1043
24921W        W28519  13.066   4.697   5.245 -0.1456 -0.1099 -0.0326
24922W        W28520  11.403  12.431  12.191 -0.0156  0.0001 -0.2059
24923W        W28521   1.511   4.118   8.559  0.0087 -0.2476  0.0842
24924W        W28522  12.754   6.254   5.936 -0.1793 -0.0599 -0.1568
24925W        W28523   6.862   8.769  16.124 -0.2963 -0.1670  0.0371
24926W        W28524  10.824   1.666   9.941  0.1138  0.0015 -0.1132
24927W        W28525   3.853  12.025  15.912 -0.0174  0.0837 -0.1413
24928W        W28526   3.230  16.227   8.343 -0.0450  0.2698 -0.1714
24929W        W28527  14.258  16.361   9.157 -0.0500  0.1010 -0.2583
24930W        W28528   8.952   3.106   7.443  0.0032 -0.2911  0.0771
24931W        W28529   9.988   6.992  14.177  0.4028  0.0329 -0.0309
24932W        W28530   1.613  15.474   4.474 -0.3409 -0.1598 -0.0472
24933W        W28531  15.910   0.790  12.884 -0.0797  0.0457  0.1121
24934W        W28532   5.605   0.601  12.630  0.2221 -0.1757 -0.1331
24935W        W28533   1.147   6.493   8.749 -0.1215  0.1498  0.1417
24936W        W28534   9.525   4.498   7.451  0.1452  0.1797  0.0848
24937W        W28535   8.864  16.326  13.652 -0.2015  0.0280  0.3787
24938W        W28536  15.274   0.079   6.870  0.0760 -0.0604 -0.2252
24939W        W28537   4.000  12.992  10.452 -0.2793 -0.0756  0.4092
24940W        W28538   6.185  13.217   6.734  0.0453 -0.0468  0.1546
24941W        W28539  16.109   2.574   5.814  0.2291  0.0771  0.3623
24942W        W28540   6.043   0.822   8.451 -0.0523  0.1895  0.1485
24943W        W28541  14.427   0.684   5.583 -0.3334  0.0786 -0.0011
24944W        W28542  10.189  12.009  10.316 -0.0372  0.3160  0.0485
24945W        W28543   7.788   5.164   2.645  0.1480 -0.0506 -0.0919
24946W        W28544  15.985  13.818   3.134 -0.0488 -0.0549  0.2817
24947W        W28545  13.465  14.608   1.430  0.0495 -0.1209  0.4127
24948W        W28546  16.247   3.160   0.910  0.1734  0.0164 -0.2669
24949W        W28547   5.155   6.577   2.758  0.0067  0.0027 -0.1117
24950W        W28548   8.698  14.787  13.462 -0.0020  0.0612 -0.0290
24951W        W28549   5.729  12.981   7.569 -0.1679 -0.1916  0.0129
24952W        W28550   4.769  11.930   4.202 -0.0684 -0.1477 -0.1983
24953W        W28551   7.368   0.554   4.318  0.2623  0.2638  0.2270
24954W        W28552   8.180   2.689  16.264  0.4603 -0.3065  0.4005
24955W        W28553   7.176  13.586   9.089  0.2245  0.2169  0.1780
24956W        W28554   1.799  12.221   9.637 -0.2182  0.1191  0.1275
24957W        W28555   4.804  15.286  14.269 -0.1149  0.2031 -0.1569
24958W        W28556   3.898  14.977   3.918  0.1433 -0.0802  0.0281
24959W        W28557   1.741  14.622  10.273  0.3175 -0.0550 -0.1027
24960W        W28558   9.794  13.148   3.243 -0.4328  0.1705  0.2105
24961W        W28559   0.748   3.507   5.897 -0.0564 -0.2252 -0.0018
24962W        W28560   9.949   2.298  10.871  0.2930 -0.0648  0.1228
24963W        W28561   9.517   8.713  13.983  0.3466  0.3851 -0.0195
24964W        W28562   4.149   9.767  15.715 -0.1034 -0.1688 -0.1262
24965W        W28563  13.447   5.961  15.454  0.1023 -0.2821  0.0855
24966W        W28564  15.103   3.543   0.599  0.0020 -0.2631 -0.0702
24967W        W28565   6.038   2.906  14.401 -0.0049  0.1197  0.1011
24968W        W28566   2.215   5.028  11.812  0.1266 -0.1335  0.2351
24969W        W28567  10.646   2.565   1.216 -0.0417 -0.1075 -0.0437
24970W        W28568   1.632  15.237   8.473  0.0032  0.2146 -0.0157
24971W        W28569   6.615   7.933   1.500 -0.0932  0.1632  0.2766
24972W        W28570   4.827   5.616  15.796  0.0626  0.1448 -0.3223
24973W        W28571  12.721   6.274   0.315 -0.0299 -0.1198  0.2503
24974W        W28572   7.855   6.093   5.342  0.3313  0.1783  0.0574
24975W        W28573  10.627   9.064  11.774 -0.1358 -0.1197  0.0686
24976W        W28574   5.106  13.942  14.873  0.1662 -0.1261  0.1095
24977W        W28575  12.016   1.760   2.065  0.0739 -0.2441 -0.0324
24978W        W28576   4.336   8.932   4.150  0.1706 -0.0161  0.1754
24979W        W28577   0.671   5.026   0.604  0.0932  0.1138 -0.0140
24980W        W28578   7.659   7.035   3.553  0.1194 -0.1896  0.1073
24981W        W28579   7.872   3.612   6.732 -0.0500  0.2441 -0.1566
24982W        W28580   1.249   9.096  15.212  0.1978 -0.1301  0.2064
24983W        W28581   5.631  15.417   2.725  0.2419  0.0183  0.0105
24984W        W28582  14.937  10.079   2.275 -0.4161 -0.4042 -0.1696
24985W        W28583   9.220   0.548  12.277  0.1364 -0.1256 -0.4320
24986W        W28584  16.374  15.927   7.563 -0.0275  0.0303  0.1434
24987W        W28585  11.340  10.469   7.892 -0.1503 -0.0078 -0.0252
24988W        W28586   3.755  15.767   3.316  0.3909  0.2031  0.1539
24989W        W28587  16.094  13.111   4.984 -0.3429  0.4015  0.1126
24990W        W28588  12.521   4.035  11.600 -0.3105  0.0034  0.0451
24991W        W28589  13.295   8.187   8.362 -0.1812  0.0314 -0.1703
24992W        W28590   7.818  12.117  13.708  0.1593  0.0554 -0.0180
24993W        W28591  13.660   8.414   4.589  0.0751  0.1912  0.0638
24994W        W28592   7.535   5.327  11.475 -0.0262  0.1656 -0.2547
24995W        W28593   3.212   2.595   1.494  0.3994  0.2030 -0.2278
24996W        W28594   2.933   5.476   7.101  0.2167 -0.0512 -0.0992
24997W        W28595   2.583   9.357  12.492  0.1321  0.0872 -0.1375
24998W        W28596   5.232  16.234   6.724 -0.1050 -0.1484  0.0198
24999W        W28597  13.453   8.700   4.056 -0.1094  0.0254  0.2852
25000W        W28598   5.232  13.668   5.989  0.4122 -0.0139  0.1760
25001W        W28599   2.359   7.237  16.192  0.0924 -0.0232 -0.3563
25002W        W28600  16.098   2.330  14.220  0.0203 -0.2963 -0.0416
25003W        W28601  12.580   4.474  12.405 -0.2377 -0.2591 -0.0214
25004W        W28602   5.100   7.014   6.116  0.0642  0.1143 -0.2450
25005W        W28603  10.492   4.218  13.680  0.1394  0.0938  0.0762
25006W        W28604   8.267   6.356   0.893  0.2655 -0.0688  0.0951
25007W        W28605   9.512  11.227   6.089  0.0326  0.3507 -0.0398
25008W        W28606  15.368  16.052  15.803 -0.2861  0.2120  0.2044
25009W        W28607   9.302  10.867   8.570  0.0681 -0.0773  0.0956
25010W        W28608  11.926   8.806   4.028  0.3441  0.3099 -0.0481
25011W        W28609  13.525  15.006   3.012 -0.1908 -0.2964 -0.0921
25012W        W28610  11.816  10.875  15.154 -0.0237  0.0220  0.0004
25013W        W28611   6.375  11.296   2.818 -0.0050  0.0195  0.0099
25014W        W28612  14.217  15.363   0.359 -0.1501 -0.0171  0.1913
25015W        W28613   4.462   9.881   3.780 -0.3153 -0.1650 -0.1960
25016W        W28614   9.898   7.686   5.328 -0.0787 -0.2816  0.3379
25017W        W28615   2.023  14.795  12.433  0.1521  0.3666 -0.0796
25018W        W28616   0.302   4.155   1.691 -0.1727  0.2905 -0.2424
25019W        W28617   1.068   8.011  11.352  0.1169  0.1535  0.0082
25020W        W28618  10.227   3.773   6.998 -0.0085  0.0501 -0.0827
25021W        W28619  16.006  16.182   1.107  0.0054  0.0746 -0.1487
25022W        W28620   0.555   9.528   2.083 -0.0297 -0.1518  0.1264
25023W        W28621   0.361  13.576  12.347  0.1955  0.1595  0.1640
25024W        W28622  11.465  10.675   8.702 -0.0075 -0.0363  0.0700
25025W        W28623  11.714   5.019  13.406  0.1278 -0.1146  0.2282
25026W        W28624   1.392   5.849  14.579  0.1675  0.2472  0.1034
25027W        W28625   1.559  13.459  13.770  0.2129 -0.0850  0.0047
25028W        W28626  16.049  13.635   8.194  0.2280 -0.2170  0.1296
25029W        W28627   0.670   2.067  15.639 -0.0430 -0.1197  0.2164
25030W        W28628  13.639  13.052   8.412  0.1102 -0.1079 -0.0924
25031W        W28629  15.318  12.778   4.113  0.0975 -0.1077  0.1122
25032W        W28630  11.724   1.423   3.634 -0.3258 -0.0645 -0.0001
25033W        W28631   7.528   4.788   4.942  0.0132  0.0134 -0.1274
25034W        W28632  12.521   5.382   7.512 -0.1736 -0.0384  0.0947
25035W        W28633  14.779  14.203   9.005  0.0407 -0.1353 -0.0174
25036W        W28634   2.905   2.713   9.706  0.2746 -0.1274 -0.2754
25037W        W28635   5.704   9.788   6.117 -0.1717  0.3331 -0.3602
25038W        W28636  12.421   7.148  14.452 -0.0249  0.3843 -0.0289
25039W        W28637  10.274   2.251   9.285  0.1550 -0.1775 -0.2286
25040W        W28638  15.770  13.669  15.743  0.3873  0.2823 -0.1967
25041W        W28639  12.585  10.236   5.103 -0.0137  0.0937 -0.0891
25042W        W28640   7.952   6.396  13.549 -0.1553  0.3270  0.2719
25043W        W28641   9.036  11.538   0.572  0.1905 -0.0043  0.0463
25044W        W28642   4.151  12.836   0.842 -0.0093  0.1696 -0.2273
25045W        W28643   4.950  14.556   7.997  0.0281  0.0834 -0.0875
25046W        W28644   3.827   0.127   2.122 -0.3754 -0.0246  0.0921
25047W        W28645   8.351   3.936  12.949 -0.2314 -0.2244  0.0699
25048W        W28646  13.081  16.239  13.982 -0.1561 -0.2936 -0.2366
25049W        W28647   3.444   7.252   2.006  0.0624  0.0635 -0.3869
25050W        W28648   1.586  12.235   5.878 -0.1317 -0.1923 -0.4954
25051W        W28649   0.573   1.803  15.236 -0.1887 -0.5506  0.0819
25052W        W28650   3.019   1.745   6.826 -0.1116 -0.0906  0.2693
25053W        W28651   4.509   0.110   1.824 -0.1879  0.2145 -0.0762
25054W        W28652  10.736  12.926  12.697 -0.0747 -0.1278  0.1394
25055W        W28653  12.878   1.618   1.157 -0.1030 -0.0110  0.3166
25056W        W28654  13.010   7.182   5.806  0.1344  0.3840  0.1439
25057W        W28655   0.496  11.337   1.275  0.1558  0.1071  0.3798
25058W        W28656  15.327   4.540  12.755  0.0993 -0.0434 -0.0498
25059W        W28657  13.300  14.113   7.610 -0.0786 -0.0788  0.0508
25060W        W28658   6.427  10.950  11.395  0.2937 -0.2119  0.1188
25061W        W28659   5.877   6.935   9.698  0.0544  0.2330 -0.2703
25062W        W28660   7.417  12.351   9.721 -0.1317 -0.0182 -0.1537
25063W        W28661   4.698   8.611   2.837 -0.0239 -0.0672  0.0744
25064W        W28662   7.113   2.099  12.251 -0.0794 -0.0163  0.0747
25065W        W28663   6.877   0.856  14.960  0.1234  0.1475  0.0574
25066W        W28664   0.781  10.483   2.665  0.0461 -0.0391  0.4078
25067W        W28665   5.752   5.039  13.094  0.1917 -0.0011  0.1070
25068W        W28666   3.513  16.337  13.891 -0.2690  0.0709 -0.1392
25069W        W28667   5.956  10.794  11.319 -0.2638  0.2809 -0.0472
25070W        W28668   1.923   9.862  15.453 -0.0061 -0.3869  0.0745
25071W        W28669   1.541   5.451   7.391 -0.0917 -0.0133 -0.1731
25072W        W28670   5.782   8.808  16.113  0.1423  0.0266  0.2547
25073W        W28671  11.952   0.967   2.794  0.0243  0.1496  0.1103
25074W        W28672   4.918   8.146  12.997  0.1317  0.1240  0.6708
25075W        W28673   2.073  11.309  12.537  0.0967  0.1256  0.2040
25076W        W28674   0.654   3.010   2.121  0.1496 -0.0631 -0.0594
25077W        W28675  14.824   4.213   2.034  0.3491  0.1371 -0.2264
25078W        W28676   5.218   5.068   6.618  0.0935 -0.0888 -0.2610
25079W        W28677   5.643   5.261   9.698  0.0416 -0.1773  0.0983
25080W        W28678  11.438   6.349   5.515  0.2200 -0.0416  0.1995
25081W        W28679   0.996  12.351   7.337 -0.3499  0.2275  0.1879
25082W        W28680  10.050   5.922  13.293  0.1875  0.0402  0.0566
25083W        W28681   3.813   5.843   4.594  0.1467 -0.1097 -0.0175
25084W        W28682   4.187  11.546   1.204 -0.1853  0.1187  0.3442
25085W        W28683   8.552   1.145  12.995 -0.3301 -0.2228 -0.1068
25086W        W28684  15.008  10.192  12.211 -0.0060  0.1316 -0.1167
25087W        W28685   5.691   5.825   3.945 -0.0481 -0.6643 -0.4552
25088W        W28686  13.734   8.173  12.555  0.5779 -0.1761 -0.0473
25089W        W28687  14.488  15.392  13.679 -0.0721  0.1658 -0.0366
25090W        W28688   8.545   0.616  11.486  0.4113  0.1755  0.0831
25091W        W28689   5.648   1.524   8.948  0.1249 -0.0528 -0.3161
25092W        W28690   4.632   9.152   1.484  0.2946 -0.1443 -0.1002
25093W        W28691   3.029   9.225   8.325 -0.2771 -0.0339 -0.3440
25094W        W28692  13.215  10.448  11.511 -0.1537  0.0720 -0.2954
25095W        W28693   3.514  13.390   2.957 -0.0948 -0.1587 -0.1800
25096W        W28694   2.360  13.243  13.512 -0.3044  0.4021  0.0923
25097W        W28695  12.234   9.864  16.363  0.1818  0.1057 -0.2060
25098W        W28696   9.471  13.968   4.406 -0.1942  0.0208  0.1051
25099W        W28697   5.861   9.320  15.949 -0.0681 -0.0554 -0.2768
25100W        W28698   6.615   4.290  14.175 -0.1248 -0.2426  0.1154
25101W        W28699  11.988   8.152  13.314 -0.1009  0.0085 -0.3235
25102W        W28700  12.216   6.984  14.038  0.4460 -0.3646  0.1724
25103W        W28701   3.811   3.385   6.879 -0.0746 -0.2902 -0.0730
25104W        W28702  10.400  13.394  12.764  0.1233 -0.1569  0.0694
25105W        W28703   9.473  15.267  10.526 -0.1812  0.0597  0.0101
25106W        W28704   8.896   0.245  10.183 -0.1730 -0.0479 -0.4976
25107W        W28705  10.955   6.233  10.090  0.0623  0.0875 -0.0529
25108W        W28706   5.956  13.114  10.910  0.1455 -0.0042 -0.0314
25109W        W28707  13.377  16.225   1.504 -0.3700  0.0672 -0.2480
25110W        W28708   2.487   3.255  11.374  0.2343 -0.0445  0.2762
25111W        W28709  13.855   9.325   0.301 -0.0461  0.2586  0.1434
25112W        W28710   8.529   8.980   1.493  0.1135 -0.0586 -0.2219
25113W        W28711   2.519   3.043  10.974  0.1733  0.2444 -0.1047
25114W        W28712   2.540   5.773  13.274 -0.1825 -0.1937  0.0454
25115W        W28713   8.713  11.370   6.546  0.0767  0.1447 -0.1527
25116W        W28714   5.119  15.138  11.375  0.3277 -0.0836 -0.4128
25117W        W28715  16.373  10.756   5.994  0.0258 -0.1283  0.1383
25118W        W28716  12.782  10.366  15.220 -0.0373 -0.2765  0.1390
25119W        W28717   8.577  11.908  14.867  0.3454  0.2275  0.2200
25120W        W28718  10.878  12.003   2.660  0.3337  0.0087 -0.0174
25121W        W28719   7.301  16.371   5.570  0.1469 -0.0664 -0.3385
25122W        W28720   6.891  14.155   2.457  0.0628 -0.2604  0.0643
25123W        W28721   6.280   7.067  10.386 -0.2820  0.0978  0.2274
25124W        W28722  11.934   1.896   5.822  0.2150 -0.0565  0.3045
25125W        W28723  10.508  12.826  10.604 -0.2433  0.0697  0.3056
25126W        W28724  12.468  10.887   6.382  0.3182  0.1532  0.2094
25127W        W28725   8.262   2.873   2.641 -0.1470 -0.1918  0.2101
25128W        W28726  11.613  13.581  13.516  0.1995  0.2602  0.1383
25129W        W28727  14.798   8.779   3.770 -0.2886  0.2451 -0.2439
25130W        W28728  12.524  15.022   4.116  0.0910 -0.0154  0.0300
25131W        W28729  12.765   3.197  14.013 -0.1064 -0.1566  0.2324
25132W        W28730  13.490   9.768  15.534  0.0532  0.4034 -0.0261
25133W        W28731   8.326   6.809   2.024 -0.0723 -0.4000  0.1231
25134W        W28732   8.992  15.622   3.828  0.0991  0.0255  0.1364
25135W        W28733  15.332   7.435   4.188  0.1568  0.2177 -0.3003
25136W        W28734   3.065  11.121  12.193 -0.0087  0.1068  0.1224
25137W        W28735   6.764  12.022  16.378 -0.0385  0.2599 -0.0457
25138W        W28736   7.647   0.053  15.918  0.0363 -0.0739  0.0867
25139W        W28737   9.139   1.125   9.142  0.1806 -0.1760  0.0716
25140W        W28738   2.869   4.800  10.624  0.2781 -0.0942  0.1292
25141W        W28739   8.351   7.517   2.342 -0.2633 -0.2078 -0.0848
25142W        W28740  15.003  13.555  14.499 -0.2034 -0.2906  0.1802
25143W        W28741   0.580  12.558   7.094 -0.3832  0.3254 -0.0061
25144W        W28742   8.016   6.499  10.574  0.2707 -0.5257 -0.0522
25145W        W28743  15.780  10.248   9.028 -0.0445 -0.1409  0.0525
25146W        W28744  12.019  11.921  15.189  0.1556 -0.1905 -0.2063
25147W        W28745   8.111   0.441   3.592  0.1982 -0.1363 -0.0840
25148W        W28746   0.535   1.493   7.692  0.1217  0.2956 -0.1277
25149W        W28747   1.315   3.721  11.098  0.0064  0.0951  0.0916
25150W        W28748  11.420  10.181   8.902  0.2169 -0.1857 -0.2213
25151W        W28749   3.147   7.567   6.797 -0.1054  0.0983 -0.1399
25152W        W28750   6.005   2.405   3.485  0.1602  0.0896 -0.2633
25153W        W28751  12.938  10.099  12.760  0.1036 -0.0517 -0.4071
25154W        W28752  14.062   0.688  15.764 -0.2621 -0.0217 -0.1455
25155W        W28753   3.287   5.137   9.097 -0.1214 -0.1096  0.1099
25156W        W28754   8.217   4.729  14.255 -0.0873 -0.1065  0.0425
25157W        W28755  14.185   9.816   0.302 -0.1442 -0.0871 -0.1522
25158W        W28756   3.198  13.649   4.624  0.0032  0.2026 -0.0546
25159W        W28757   6.456  15.234   9.228 -0.0634 -0.3335  0.0055
25160W        W28758   8.911  12.545   5.570  0.2304 -0.1977  0.0058
25161W        W28759   7.574   3.292   5.889 -0.0279 -0.1558  0.1630
25162W        W28760   0.424   9.164   2.923  0.0488 -0.0588  0.1695
25163W        W28761   5.284   2.633  10.684 -0.1181  0.0593  0.2478
25164W        W28762  13.163   2.037   5.317  0.3145 -0.0153 -0.1401
25165W        W28763  15.769   1.014   4.605  0.1376  0.1290  0.1424
25166W        W28764  15.710  15.821   3.614  0.0174  0.0589 -0.1835
25167W        W28765   3.587   9.332   5.915  0.0906 -0.1025  0.0895
25168W        W28766  10.738   5.148   6.890 -0.0459 -0.1769  0.0405
25169W        W28767   7.658  14.499  15.966 -0.1023  0.0703 -0.1707
25170W        W28768  14.790  12.311  13.172 -0.1638 -0.2879 -0.1033
25171W        W28769   8.881   8.615  10.618 -0.2439 -0.1060  0.0224
25172W        W28770   5.477   6.725   0.666 -0.2625 -0.1529 -0.0512
25173W        W28771  14.405  13.125   1.442 -0.1548  0.2377 -0.0452
25174W        W28772  14.455   7.913   9.505 -0.1976 -0.1348 -0.1062
25175W        W28773   2.580   1.566   1.271 -0.1331 -0.0638  0.0579
25176W        W28774   0.314  16.392  11.487 -0.3607 -0.1049 -0.2222
25177W        W28775   8.326   6.726   0.507  0.0286 -0.2371 -0.1158
25178W        W28776   8.290   5.535   1.591 -0.1688  0.2509 -0.0486
25179W        W28777   0.870  14.594   2.610 -0.0022 -0.0927  0.1554
25180W        W28778   5.946   5.514   2.993 -0.0945 -0.1075  0.3380
25181W        W28779   2.505   7.394  14.143 -0.1437 -0.0389 -0.1532
25182W        W28780  15.442  15.314   4.332 -0.3264  0.1550  0.0459
25183W        W28781   2.243  10.393   4.101  0.2705  0.1026  0.0667
25184W        W28782  10.774  14.222   8.943  0.0800 -0.0488  0.1964
25185W        W28783   0.688  14.159  11.723 -0.1206 -0.2085  0.1640
25186W        W28784  13.518   7.358   2.271  0.0255  0.4049 -0.1602
25187W        W28785  13.894   2.353   8.373 -0.3633 -0.1034  0.0632
25188W        W28786  10.517   4.163  15.482 -0.0367  0.1508  0.2245
25189W        W28787  11.009   2.656   8.182 -0.4636 -0.3156  0.0150
25190W        W28788   6.379   2.726  16.109 -0.1219  0.1496 -0.1207
25191W        W28789   8.403   1.460   2.016 -0.1179 -0.1458  0.2955
25192W        W28790   2.979  12.529   7.789 -0.0007  0.1360 -0.1569
25193W        W28791  14.590  13.451   9.252  0.0201 -0.1570 -0.0325
25194W        W28792   7.720   3.491   7.563 -0.0694  0.1787  0.0864
25195W        W28793  11.485   2.706  11.243  0.0477  0.2898  0.0312
25196W        W28794   7.437   5.344   4.465 -0.1475  0.5083 -0.1673
25197W        W28795  16.176   6.415   9.525  0.1701 -0.0599  0.1613
25198W        W28796  10.576  10.121  14.045 -0.0064  0.3272  0.1309
25199W        W28797   9.502  10.055   2.428  0.1542  0.3135  0.0364
25200W        W28798  12.952  14.705   1.565 -0.0039  0.1479  0.1839
25201W        W28799   2.492   8.500  10.099  0.4958  0.2416 -0.0034
25202W        W28800   2.894  15.355   0.874 -0.1875  0.0740 -0.1084
25203W        W28801  16.199   5.907   5.450 -0.2756 -0.0250  0.0525
25204W        W28802   9.035  12.933   2.895  0.2450 -0.2943 -0.0220
25205W        W28803   8.715  11.408  13.736  0.4321  0.0088  0.1506
25206W        W28804   8.530   4.145   5.508 -0.2546 -0.0896  0.0589
25207W        W28805   9.065   0.656  11.675  0.1042  0.4886  0.0579
25208W        W28806  13.012   4.609   3.099  0.0998  0.2259 -0.1690
25209W        W28807   2.142  14.838   4.551 -0.0250 -0.0658  0.1807
25210W        W28808   5.158   4.907   0.271 -0.0908 -0.1344  0.0235
25211W        W28809  12.133  15.111   5.871 -0.3151 -0.2894 -0.0624
25212W        W28810   2.007   7.110   7.308 -0.0647 -0.1037  0.3145
25213W        W28811   5.883   4.245   6.222  0.3983  0.0352 -0.0222
25214W        W28812  14.586  12.910   7.278  0.0384 -0.1620  0.1090
25215W        W28813   4.047   3.354   0.948 -0.2591  0.0261 -0.0157
25216W        W28814  15.233  11.650  14.030  0.2120  0.0924  0.0496
25217W        W28815   6.411  13.682  11.736 -0.2220 -0.4458  0.0338
25218W        W28816  15.731   4.480   6.179 -0.2766 -0.2066  0.2172
25219W        W28817   8.200   1.832   1.671  0.1160  0.3027 -0.0469
25220W        W28818  12.828   4.077   3.286 -0.2100  0.3156 -0.0462
25221W        W28819   7.037  16.154   4.060  0.0504 -0.0489 -0.0982
25222W        W28820   2.749  12.438  14.688  0.2327 -0.0765  0.0973
25223W        W28821   8.839   1.574   4.787 -0.0784  0.1193  0.0319
25224W        W28822  15.490   6.572   9.971 -0.0097 -0.3592  0.0503
25225W        W28823  12.388   3.143  15.880  0.2170  0.1459  0.0921
25226W        W28824  16.184   1.502  10.856  0.1423 -0.1514  0.3761
25227W        W28825  15.365   5.750   7.820  0.0774 -0.0255  0.2383
25228W        W28826   5.038  10.874   5.630  0.0434 -0.0421 -0.0039
25229W        W28827   6.148  15.259   1.168 -0.0809  0.1929  0.1121
25230W        W28828   8.449   2.480   7.645  0.0766 -0.1563 -0.0155
25231W        W28829   4.816   1.745   8.802  0.1225  0.0256 -0.1108
25232W        W28830  12.732   9.442   5.639 -0.2995 -0.0671  0.0228
25233W        W28831   8.272  10.099   5.499  0.0594 -0.1987  0.3596
25234W        W28832   7.924   7.255  15.387  0.0630 -0.0197 -0.2367
25235W        W28833   3.026   0.763  12.152  0.1667 -0.0073 -0.0262
25236W        W28834   2.342   4.571   6.816 -0.0358  0.2222  0.2453
25237W        W28835  12.807  15.572  10.743 -0.0655  0.0951  0.0057
25238W        W28836   4.061  11.172   4.690  0.2101 -0.0167  0.0380
25239W        W28837  14.142   3.528   5.482  0.2179  0.1729 -0.0015
25240W        W28838  11.663   4.650  13.796  0.3295  0.2318 -0.1830
25241W        W28839   2.422   2.275  15.380 -0.3858 -0.2383  0.2662
25242W        W28840   8.167   4.654   0.864 -0.0935  0.0531 -0.1577
25243W        W28841   4.844   0.860  14.743 -0.1022  0.1275 -0.4082
25244W        W28842  14.503  11.096   2.494 -0.1143  0.1419  0.2961
25245W        W28843   5.599  12.457  11.561  0.0567 -0.0562  0.1354
25246W        W28844   7.620   1.857  12.249  0.2140  0.2229  0.1782
25247W        W28845   7.655   5.345   7.847  0.3102  0.0816 -0.0430
25248W        W28846   6.045   7.624  11.872  0.0042 -0.1621  0.1794
25249W        W28847   4.548  15.557   2.988 -0.0498  0.0763 -0.2402
25250W        W28848  16.033   7.268  11.540  0.2218  0.0381  0.1911
25251W        W28849   7.802   2.528   1.869  0.0322  0.2768 -0.1973
25252W        W28850   7.124  14.359   1.638 -0.0461 -0.2351  0.2074
25253W        W28851   3.794  14.726   5.364 -0.0762  0.2901 -0.1275
25254W        W28852   8.089   6.199   7.764 -0.1799 -0.2087  0.0561
25255W        W28853   8.007   6.426  15.437 -0.0969  0.2288 -0.1493
25256W        W28854   1.820  13.813  10.803 -0.0466 -0.3433  0.0208
25257W        W28855   4.092   0.548   0.193  0.2087  0.2045  0.0311
25258W        W28856  12.381   2.637   5.381 -0.1034  0.1980  0.1822
25259W        W28857   4.581   2.736   7.062 -0.1534 -0.0572 -0.0062
25260W        W28858   3.113   8.396   0.444 -0.1328 -0.1250 -0.1124
25261W        W28859  15.363  12.150   9.189  0.2803  0.2110  0.0373
25262W        W28860  15.528   0.638   7.897  0.3231  0.1978  0.0141
25263W        W28861   9.335  14.639   0.386  0.3500 -0.1689  0.2274
25264W        W28862  13.451   6.105   6.689 -0.0329 -0.0873 -0.0525
25265W        W28863   0.265   0.888   6.058  0.0872 -0.0433 -0.0255
25266W        W28864  12.724  10.850  12.336 -0.4677  0.0753  0.0145
25267W        W28865   5.583  16.387  12.409 -0.0469 -0.1689 -0.4588
25268W        W28866   1.421   1.159   1.747  0.1476 -0.0659  0.3010
25269W        W28867  11.457  13.231   4.131 -0.0343 -0.0298  0.2663
25270W        W28868   0.604  10.312   7.228 -0.1928  0.1277 -0.0445
25271W        W28869  10.290   7.484  16.375 -0.0324  0.0733 -0.2491
25272W        W28870   3.099  13.510  14.955  0.2685 -0.4655  0.1232
25273W        W28871   8.636   3.485   9.696  0.1172  0.1449 -0.2364
25274W        W28872  12.350   5.331   1.998 -0.1421 -0.2015 -0.0641
25275W        W28873   9.005   8.782  14.468  0.0648 -0.1866  0.0614
25276W        W28874  13.184   6.598   5.796 -0.0234 -0.1472  0.3344
25277W        W28875   2.507  15.485  11.469  0.1065 -0.1073 -0.0568
25278W        W28876   8.700   5.716  14.706  0.2184  0.3531 -0.0454
25279W        W28877  11.070   5.000   2.605  0.0542 -0.3133  0.0983
25280W        W28878   9.131   9.624   6.699  0.2343 -0.3358  0.2784
25281W        W28879   2.525   2.643   2.125 -0.0878  0.0249 -0.0354
25282W        W28880  10.002   9.259   5.220  0.1216 -0.1274  0.0006
25283W        W28881  15.891   4.538  12.009 -0.1070 -0.0715  0.2948
25284W        W28882   0.081   9.313   2.150 -0.0006 -0.0009 -0.1805
25285W        W28883  11.211   8.438   3.642  0.2013  0.3708  0.0390
25286W        W28884   4.043   8.654   0.221  0.0109 -0.1227  0.1625
25287W        W28885   6.269   0.840   7.465  0.1277 -0.1648 -0.1103
25288W        W28886   8.503  10.112   2.254  0.0930  0.2730 -0.1550
25289W        W28887   7.378  13.336   2.681  0.0513 -0.0037 -0.1896
25290W        W28888  16.242   5.234   4.190  0.1271 -0.0495  0.4539
25291W        W28889   2.981  15.532   2.275  0.3185 -0.0772 -0.1800
25292W        W28890   3.777   3.416  14.773  0.0515  0.2139 -0.0739
25293W        W28891   0.573   0.173  11.061  0.1461  0.2468  0.0293
25294W        W28892   5.007   9.565  15.989 -0.0697 -0.0228 -0.5980
25295W        W28893   0.780  10.324  11.974  0.2198  0.0099 -0.2282
25296W        W28894   9.053  12.675  16.061  0.1859  0.2072  0.1487
25297W        W28895   1.101   6.630   9.790  0.3145  0.1817  0.0273
25298W        W28896   7.579   3.792   1.663 -0.1721  0.0369  0.0892
25299W        W28897  14.320   0.335   5.217  0.0266  0.0750 -0.0803
25300W        W28898  13.859  14.411   8.349 -0.2402 -0.2184 -0.0912
25301W        W28899   8.224   4.834  11.858  0.3060 -0.0083  0.1371
25302W        W28900  12.782   8.834   3.635 -0.1078  0.0957 -0.0221
25303W        W28901  10.295  11.743   9.890 -0.2018  0.2186  0.1558
25304W        W28902  10.937  11.055   3.161  0.1960  0.1418 -0.5715
25305W        W28903   4.480  15.745  13.620 -0.0779 -0.1714 -0.4625
25306W        W28904  15.195  10.694  12.817 -0.0617  0.0971 -0.2726
25307W        W28905   4.857   3.412   9.194 -0.3920 -0.1336  0.0301
25308W        W28906   9.348   6.671  10.660  0.0583  0.1132 -0.0562
25309W        W28907   7.036   7.450   0.447 -0.0821 -0.0035  0.3916
25310W        W28908   7.505  15.109   4.844  0.0265 -0.3777 -0.0554
25311W        W28909   1.069  14.729   5.651 -0.0134  0.0194 -0.0543
25312W        W28910  10.078   0.544   7.163  0.2384  0.0863 -0.3182
25313W        W28911  13.126   7.647  15.545 -0.1119  0.0743  0.1455
25314W        W28912   5.819  10.404   0.538 -0.0543  0.0195 -0.0168
25315W        W28913   9.620   0.256   4.104 -0.2883  0.1712 -0.1735
25316W        W28914  12.113  10.555  14.256  0.1863 -0.0222  0.1621
25317W        W28915   5.324  13.274   3.950  0.0662 -0.1572  0.3616
25318W        W28916   4.582   3.571   3.923 -0.4006 -0.0581 -0.0664
25319W        W28917   4.718  15.251  11.662  0.3389 -0.1758 -0.0829
25320W        W28918   7.446  13.504  11.183  0.2042 -0.3368 -0.1326
25321W        W28919   9.897  14.582  10.103 -0.3670  0.2981  0.3083
25322W        W28920   3.067   7.824   8.946  0.0709  0.3418  0.0719
25323W        W28921   5.982  11.768   6.443 -0.2565  0.4365  0.1380
25324W        W28922  15.956   0.780   6.341 -0.3137 -0.1025  0.2329
25325W        W28923   3.417  11.981   2.817 -0.0754  0.2893 -0.3625
25326W        W28924   2.209   7.643   8.904 -0.3655 -0.0222 -0.0683
25327W        W28925   2.219  11.772   0.044 -0.2278  0.0160  0.0071
25328W        W28926  11.278   1.423   2.497 -0.0306  0.2560 -0.1932
25329W        W28927   2.199  14.780   2.335  0.1173 -0.0877 -0.0978
25330W        W28928   2.415   9.609  12.994 -0.0045  0.2815  0.1236
25331W        W28929  15.001  15.846   9.561 -0.0515  0.0594 -0.3015
25332W        W28930   6.643  12.831   6.599 -0.0681 -0.5560  0.2631
25333W        W28931   7.614   8.542  10.096 -0.0796 -0.2413 -0.0590
25334W        W28932  14.733   2.204   0.888 -0.1545 -0.1370  0.1522
25335W        W28933  13.275  15.693  14.150 -0.0005 -0.0185 -0.2142
25336W        W28934  12.865   9.730   8.220  0.3713  0.0150  0.0900
25337W        W28935  14.847   0.968  14.101 -0.0523 -0.1497 -0.1973
25338W        W28936   7.318  12.758  10.585  0.0231  0.0720 -0.2209
25339W        W28937   8.847   5.549   8.621 -0.2271  0.0762  0.2169
25340W        W28938   3.201   5.981   0.688  0.2332 -0.1717  0.0354
25341W        W28939  15.785  11.661  14.652 -0.0408  0.1773 -0.1058
25342W        W28940  13.651  10.511  13.184 -0.0493  0.0597  0.1138
25343W        W28941   4.261  13.099   8.958 -0.0051 -0.0205 -0.0902
25344W        W28942  12.972   9.143  13.510  0.2213 -0.1028  0.2228
25345W        W28943  13.343  14.858  15.190 -0.0497 -0.2933  0.0607
25346W        W28944   4.123   9.236  12.543 -0.0735  0.2883  0.0457
25347W        W28945   8.621   0.578  14.801  0.1690 -0.0214 -0.0074
25348W        W28946   1.782  11.917   5.424  0.1564  0.2416  0.0330
25349W        W28947  13.383   0.882  11.392  0.0373  0.5518  0.0425
25350W        W28948  14.372   6.920   7.288  0.2205 -0.2554  0.0784
25351W        W28949  16.163  11.102   9.922  0.1376  0.0238 -0.1590
25352W        W28950   7.422   4.507  15.231  0.0218  0.0453  0.3448
25353W        W28951   9.393   4.685   0.320  0.0579  0.1547 -0.2481
25354W        W28952   0.600   8.510  10.601 -0.3277  0.2961 -0.1782
25355W        W28953   4.664   9.907  15.487  0.2316 -0.2357  0.1164
25356W        W28954   1.497  14.048  12.233  0.0169 -0.2019  0.0691
25357W        W28955   9.841   7.558   4.111  0.1309  0.2472 -0.2081
25358W        W28956   3.278   9.819   7.639 -0.0109  0.0672 -0.1623
25359W        W28957   2.630  13.922   9.674 -0.1446  0.0390 -0.2086
25360W        W28958  14.505   6.198  16.306 -0.2883 -0.1910 -0.1625
25361W        W28959  16.247   0.732   8.787  0.2100 -0.0035  0.0146
25362W        W28960  14.071   8.695   7.589  0.1365  0.2635  0.2468
25363W        W28961   0.457   5.289  14.609  0.2979  0.0912  0.0170
25364W        W28962  11.056  10.841   0.915  0.1066  0.1265 -0.0672
25365W        W28963  13.978  10.129  16.370  0.1498  0.1579  0.0950
25366W        W28964  10.488   5.716   1.324  0.0699  0.0129 -0.0290
25367W        W28965   4.302   4.397   3.661 -0.1922  0.0010 -0.0048
25368W        W28966   2.503   8.851   6.575 -0.1296  0.1213  0.3729
25369W        W28967   0.956  15.813  11.337 -0.0212 -0.0422 -0.1170
25370W        W28968   8.470  14.611   7.708 -0.0699 -0.1368 -0.0604
25371W        W28969  13.908   5.298  15.896 -0.3540  0.2913 -0.0626
25372W        W28970  12.198   2.867  13.793  0.0857 -0.3935 -0.3272
25373W        W28971  13.475  13.187   9.987 -0.3473 -0.0570 -0.1453
25374W        W28972   1.494   5.685  15.085  0.0834  0.0214 -0.3315
25375W        W28973   2.228   8.848   7.751  0.0033  0.0024  0.1946
25376W        W28974  14.816  13.212  11.066 -0.2701  0.1089  0.1301
25377W        W28975   5.904  11.205  11.834 -0.0678  0.3700  0.2042
25378W        W28976   8.331  15.841   1.017  0.0978  0.0032 -0.0087
25379W        W28977   5.957   5.124   4.518  0.1322  0.1485  0.0431
25380W        W28978  13.315   3.510   3.828  0.1830  0.1644 -0.1304
25381W        W28979   6.387   9.333   3.151 -0.1160  0.3112  0.1475
25382W        W28980   8.994   5.749  10.755  0.2665 -0.2934 -0.0016
25383W        W28981  10.218  15.530   0.984 -0.1658  0.0662  0.1002
25384W        W28982  13.250  15.328  11.311  0.1370  0.2845 -0.2609
25385W        W28983  11.509   2.899   2.914  0.0800 -0.4786 -0.3277
25386W        W28984   3.539  11.186  12.172  0.1708  0.1598 -0.0842
25387W        W28985   6.900   9.077  12.958 -0.1833 -0.2360  0.3348
25388W        W28986   5.961   9.112   0.097  0.1612 -0.2598  0.0599
25389W        W28987  14.028  15.278  13.914  0.1820  0.0663 -0.1588
25390W        W28988   3.864   3.481  11.742 -0.1825 -0.3170 -0.1251
25391W        W28989   3.490   9.940  15.450 -0.0192 -0.3725 -0.3708
25392W        W28990  10.898   6.989   4.832  0.2958  0.1007  0.1524
25393W        W28991  11.746   7.845   0.198 -0.0935  0.0174 -0.0225
25394W        W28992   7.151   7.178   6.338  0.0901 -0.0705 -0.0104
25395W        W28993  15.631   0.933  14.650 -0.0046 -0.0547 -0.1425
25396W        W28994   5.843   3.215  10.126  0.0163  0.1563  0.1938
25397W        W28995   9.654   8.026  10.649 -0.0556  0.2845  0.1604
25398W        W28996  11.459  16.355   8.191 -0.2689 -0.1348 -0.2364
25399W        W28997   9.370  14.476  13.054 -0.1071  0.1154  0.0354
25400W        W28998   5.265   7.667   4.045  0.1247  0.1869 -0.1955
25401W        W28999  10.252   9.993   4.658 -0.3493 -0.0807  0.0087
25402W        W29000   5.078  13.983   3.845  0.1323  0.2339  0.3289
25403W        W29001   4.483   8.427  16.238  0.0924 -0.2840 -0.0400
25404W        W29002   9.793  13.309   5.605  0.3021 -0.2126 -0.0140
25405W        W29003   3.227   4.543   7.912 -0.4264  0.0574  0.0182
25406W        W29004  15.515   0.548   2.361  0.0148 -0.0288  0.0364
25407W        W29005   1.157  15.396  13.253  0.0087 -0.0453 -0.0748
25408W        W29006   2.072   6.468  12.689 -0.0574 -0.1024  0.1026
25409W        W29007  14.933  10.364   8.840  0.1812  0.0834 -0.1940
25410W        W29008   8.711   5.283   0.376  0.0254  0.2094 -0.0729
25411W        W29009  11.027  16.016  10.099  0.0160 -0.2772 -0.3300
25412W        W29010   0.536   2.691   9.234 -0.1217  0.1039  0.1347
25413W        W29011  11.584   6.470   7.454  0.0404  0.2910  0.3204
25414W        W29012   1.550  14.906  12.881  0.2546  0.1038  0.0845
25415W        W29013   4.789  12.069  12.457  0.3624  0.0931  0.0226
25416W        W29014  12.208   7.580  12.492 -0.2366  0.0208 -0.1091
25417W        W29015   3.552  11.837   4.978 -0.1236  0.1265 -0.4532
25418W        W29016   9.500  12.606   4.383  0.0443 -0.0244 -0.2839
25419W        W29017  14.244   8.364  13.372  0.0074  0.0518  0.0851
25420W        W29018   8.630   7.293  13.662  0.0290  0.1415  0.1648
25421W        W29019  10.267  14.897  10.749  0.0910 -0.0922 -0.3281
25422W        W29020  14.769   6.853  15.697 -0.0488  0.0953  0.1022
25423W        W29021   0.901   2.991   5.041  0.0222  0.0483  0.1022
25424W        W29022   5.012  11.456   4.521 -0.2090 -0.3659  0.0531
25425W        W29023   0.828   3.996  10.248 -0.2089  0.0315 -0.0554
25426W        W29024   3.989  10.640  13.938 -0.0393  0.1660  0.1735
25427W        W29025   4.722  13.390   4.783  0.1751 -0.1043  0.2102
25428W        W29026  11.044   0.016  10.398 -0.0723  0.0231 -0.0538
25429W        W29027   3.565  14.644   0.566 -0.0526  0.1374  0.1290
25430W        W29028   5.796  15.744   0.561  0.4359 -0.0712  0.0801
25431W        W29029  13.883   9.608   0.736  0.0940 -0.0404  0.0143
25432W        W29030  10.257  11.265   0.628 -0.0520 -0.0423 -0.1232
25433W        W29031   1.688   5.923  11.598 -0.1968  0.0729  0.4602
25434W        W29032  15.252   6.688   3.564 -0.0538  0.2455  0.3350
25435W        W29033   6.552   2.754  13.188 -0.0706  0.2821  0.4049
25436W        W29034   7.849   9.140  16.207 -0.0933 -0.2394 -0.0794
25437W        W29035   3.183  14.874   6.214  0.1323 -0.2110 -0.2206
25438W        W29036   6.609   6.763   0.717  0.2093 -0.0261 -0.0768
25439W        W29037  15.536  10.920   7.321  0.0721  0.0151  0.1000
25440W        W29038  14.884  12.386  12.266  0.4773 -0.1576  0.2200
25441W        W29039  10.746  13.951  13.510 -0.0319 -0.0438  0.0241
25442W        W29040   1.000  13.104   3.403 -0.2055  0.0907 -0.1214
25443W        W29041   6.040   8.981  15.652  0.5369 -0.0365  0.0886
25444W        W29042   1.395  16.377   9.158  0.1537  0.2373 -0.0250
25445W        W29043   4.490   0.838   5.201 -0.0293  0.1836 -0.5271
25446W        W29044   7.707  11.268   7.068 -0.0262 -0.0285 -0.3122
25447W        W29045   7.574  13.697   7.777  0.1123  0.1202  0.0197
25448W        W29046  15.616   8.391   9.128 -0.1268  0.0423  0.0902
25449W        W29047   3.815  13.803   8.954  0.0119  0.0767 -0.1894
25450W        W29048  12.165  10.926   9.893  0.0417 -0.1582  0.1629
25451W        W29049  15.741   8.918   9.845 -0.1390  0.0319 -0.2408
25452W        W29050   5.845   3.575  11.959  0.0698 -0.0953  0.0147
25453W        W29051  10.082   4.936   9.646 -0.2292 -0.0988  0.1944
25454W        W29052   9.304   8.904   7.039 -0.3033 -0.1472 -0.4118
25455W        W29053  15.002   4.967  10.029 -0.2854  0.1549  0.2876
25456W        W29054   4.283  15.662   2.062  0.3327 -0.0128  0.0935
25457W        W29055   7.229  14.791   6.687 -0.0266 -0.2481 -0.0603
25458W        W29056   6.095   8.298   6.244 -0.4950  0.1153  0.0282
25459W        W29057  13.884   9.750   5.938  0.2744 -0.1243  0.0668
25460W        W29058  16.085  10.948   7.038 -0.0599  0.3806 -0.0309
25461W        W29059  11.096   3.502  14.483 -0.1986 -0.2443  0.0025
25462W        W29060   4.666  15.649   8.401 -0.1216  0.1992 -0.4635
25463W        W29061   0.906   0.159  14.746 -0.1427  0.2087  0.3204
25464W        W29062   0.649   5.822   9.194 -0.1877  0.2319 -0.1299
25465W        W29063   2.418   1.540   6.938 -0.1490 -0.0365  0.2727
25466W        W29064   1.594   4.115   6.893  0.2235 -0.0476 -0.1841
25467W        W29065  11.870   1.002  11.997  0.1094  0.0776 -0.2830
25468W        W29066   7.314   3.769   4.520 -0.1124  0.1191  0.0519
25469W        W29067   2.715  15.508  14.297  0.1702  0.1951  0.0511
25470W        W29068   8.959   1.007   8.685 -0.3422  0.2499 -0.0235
25471W        W29069   0.025   5.710   4.214 -0.1539 -0.0359  0.1848
25472W        W29070   7.582  15.385   3.755 -0.1013  0.1390  0.0758
25473W        W29071   4.963   8.483  10.410  0.1374 -0.0472  0.1689
25474W        W29072  15.913   7.848   1.812 -0.0984 -0.0317 -0.0646
25475W        W29073   5.022   9.763  14.216  0.0337 -0.3411  0.1186
25476W        W29074   6.495   2.270  13.972 -0.0643  0.1677 -0.0675
25477W        W29075   1.631   1.871  12.360  0.3906 -0.0396 -0.2224
25478W        W29076  14.876  15.553  14.668  0.3436 -0.1132  0.1999
25479W        W29077   8.418  12.761   5.824  0.0376  0.0908  0.0205
25480W        W29078   8.475   5.088   6.057  0.1406  0.0894  0.2907
25481W        W29079  10.830   6.842  12.269  0.1649  0.1550 -0.2773
25482W        W29080   9.892  13.010  14.056 -0.0181  0.0009  0.0294
25483W        W29081   2.154   1.425  10.694 -0.2017  0.0975 -0.2980
25484W        W29082  16.005  11.587   5.711  0.0317 -0.3423 -0.2690
25485W        W29083  10.703   0.794   7.827 -0.1150  0.1051 -0.1641
25486W        W29084   7.941   3.784   7.917  0.0705  0.1204  0.4386
25487W        W29085   4.076   9.978   5.532  0.0354  0.1521  0.2116
25488W        W29086   1.459   0.434   2.557  0.3415 -0.0937 -0.0260
25489W        W29087   7.211   1.666  14.615  0.0585 -0.0195  0.1392
25490W        W29088  10.797   4.433   7.697 -0.1669 -0.0559  0.2252
25491W        W29089  13.153   6.042  12.525  0.1647 -0.0004  0.1193
25492W        W29090   8.925   9.704  13.869  0.5692 -0.0457 -0.1872
25493W        W29091   4.612  11.561  10.604 -0.1103  0.1475  0.0105
25494W        W29092   1.300   5.255  12.992  0.3435 -0.0362  0.4806
25495W        W29093  14.535   7.673   3.205 -0.1960  0.2774  0.1528
25496W        W29094  14.999   7.313  13.168 -0.1492  0.0199  0.0081
25497W        W29095   9.633   3.874   2.932  0.1256 -0.0883 -0.3770
25498W        W29096  15.103  10.800   8.600 -0.2412  0.0806 -0.0260
25499W        W29097  10.902   7.500  12.129 -0.2215  0.0732 -0.1109
25500W        W29098  12.645  10.518   1.094  0.1531  0.3525 -0.1581
25501W        W29099   3.313   4.038   8.401 -0.1282 -0.3296 -0.0288
25502W        W29100  11.407   5.847   3.655  0.3101  0.2634 -0.0281
25503W        W29101   1.909  12.773  12.085  0.2558  0.0073 -0.0999
25504W        W29102   4.116   6.719   6.638 -0.2268 -0.0309  0.0800
25505W        W29103  14.113  13.101   3.904 -0.2806 -0.2888 -0.2706
25506W        W29104   0.666  14.652  10.273  0.0112 -0.2370  0.0129
25507W        W29105  13.235  10.274  13.481 -0.0740 -0.0341  0.0453
25508W        W29106  12.028   9.302   1.532 -0.0591 -0.1032  0.2429
25509W        W29107  15.824  15.121  12.743  0.1974  0.4283 -0.0684
25510W        W29108   4.022  15.966   6.199 -0.1083  0.0499  0.1222
25511W        W29109  13.338   7.789   2.996 -0.0567 -0.3040  0.1917
25512W        W29110  12.406   3.994   9.572 -0.1113  0.2116 -0.0859
25513W        W29111  11.679  15.959  13.200 -0.0866  0.1733 -0.0133
25514W        W29112  13.155   5.071  12.887  0.0076  0.2656  0.0276
25515W        W29113   5.321  13.606  13.235  0.3746  0.1901  0.0575
25516W        W29114   0.698  11.929  15.018  0.1130  0.1832  0.0967
25517W        W29115   9.656   4.379  15.779 -0.0328 -0.1196  0.0441
25518W        W29116   8.723  15.128   4.612 -0.2892  0.0243  0.3686
25519W        W29117  10.662   1.917  10.828 -0.2184  0.2847  0.0728
25520W        W29118  14.018  10.472  15.526  0.2564  0.0305  0.0862
25521W        W29119   2.840   2.291   8.253 -0.1248  0.1301  0.0923
25522W        W29120  13.871   2.028   3.146  0.1761 -0.0274 -0.0492
25523W        W29121  11.638   6.175   0.831 -0.2219  0.4035 -0.3215
25524W        W29122   8.353  14.721   3.337 -0.0484  0.0829  0.3858
25525W        W29123   3.377   6.418   0.517  0.1209  0.1166  0.0321
25526W        W29124   5.650  10.176   8.340 -0.4841 -0.0649  0.0082
25527W        W29125   5.153  15.660   5.054 -0.2115  0.0945 -0.2063
25528W        W29126   6.992   4.824   4.935 -0.0400  0.3232  0.1924
25529W        W29127   2.840  10.653  12.145 -0.2432  0.4171 -0.1781
25530W        W29128  10.989   3.203   5.488 -0.2797  0.4037 -0.3689
25531W        W29129  12.104   9.255  15.487  0.1443  0.0185 -0.2338
25532W        W29130   0.780   0.933   6.796  0.0907 -0.1034 -0.3826
25533W        W29131   0.343   3.732  10.988 -0.0588 -0.2189 -0.0980
25534W        W29132  13.009  15.192   5.788 -0.0321 -0.0185 -0.2445
25535W        W29133   9.635   3.874  10.506  0.1619  0.1466  0.2314
25536W        W29134   5.440   0.462   7.651 -0.2627  0.1268 -0.0724
25537W        W29135   3.340   5.840  14.120  0.0702  0.4016 -0.0146
25538W        W29136   3.175  14.825   4.791  0.0766  0.2866  0.1199
25539W        W29137   8.636  12.077   7.898 -0.0649 -0.1459  0.2156
25540W        W29138   6.245   1.899  13.174  0.3757  0.1276  0.0166
25541W        W29139   1.592   3.463  10.243 -0.0680  0.0463  0.0148
25542W        W29140  12.430  12.965  10.210  0.4304 -0.0861 -0.2135
25543W        W29141   5.026   3.162  11.403  0.0843 -0.3587 -0.2428
25544W        W29142  15.364  15.736   3.944  0.1624 -0.0849  0.0626
25545W        W29143  12.787  12.541   8.578 -0.1471  0.3081  0.1775
25546W        W29144   9.682  15.843   9.409  0.3228  0.1377  0.0625
25547W        W29145  11.790  13.668   3.409 -0.0040  0.2686 -0.0747
25548W        W29146  10.288   1.834   2.193 -0.1471 -0.0536  0.1740
25549W        W29147   7.531  10.618   0.889 -0.0462 -0.1905  0.0791
25550W        W29148   6.863   3.248   7.136 -0.1132 -0.1502  0.0879
25551W        W29149   6.168  14.977   2.484  0.0257 -0.2342  0.2107
25552W        W29150   9.468   1.931   1.535 -0.0182 -0.0463 -0.0700
25553W        W29151   3.957  12.273  13.568 -0.3286  0.0034  0.1133
25554W        W29152   9.815   4.194  13.778  0.1089 -0.1298  0.0446
25555W        W29153  14.042  11.261   4.974  0.0394 -0.3484 -0.0149
25556W        W29154  10.363  14.791   8.265 -0.2364  0.1487 -0.0466
25557W        W29155  11.097   9.418   9.191  0.0390  0.0181 -0.0347
25558W        W29156   0.730   3.195   1.296 -0.0465 -0.3461  0.0315
25559W        W29157   4.670   4.203   2.405 -0.1281 -0.0607 -0.0219
25560W        W29158  15.540   3.041   5.008  0.2973 -0.1378 -0.1463
25561W        W29159   3.696   8.080  14.995  0.1639 -0.5414 -0.2758
25562W        W29160   6.538   4.927   0.163 -0.1225 -0.2060 -0.0668
25563W        W29161   8.764  12.891  12.819  0.0404 -0.2320  0.0242
25564W        W29162   8.242  15.774   6.518  0.2341  0.1725  0.2346
25565W        W29163   2.425   6.931  15.452  0.0309  0.1768 -0.0284
25566W        W29164   1.555  16.024   1.031 -0.1065  0.1551  0.5422
25567W        W29165  10.942  14.251   8.325 -0.0095 -0.1240 -0.1645
25568W        W29166  13.531   9.049   3.451  0.0143  0.1175 -0.1757
25569W        W29167  10.956  14.361  10.016 -0.2186  0.0431 -0.4101
25570W        W29168   5.483   6.259   0.931  0.2163 -0.1198 -0.6010
25571W        W29169  15.210  12.533   6.984 -0.0897 -0.0182 -0.3384
25572W        W29170  16.128   6.338  13.949 -0.0305 -0.1281 -0.0550
25573W        W29171  14.789   4.524   7.340 -0.2469  0.0587 -0.0832
25574W        W29172  14.311   5.132   3.328 -0.1604  0.4115 -0.1369
25575W        W29173   7.103   9.780  13.649  0.2378  0.1249 -0.0833
25576W        W29174  15.826   8.220   5.882 -0.0898 -0.1001  0.0947
25577W        W29175   0.935  12.900   4.714  0.0811  0.0136  0.0847
25578W        W29176  12.846   3.631  11.759 -0.4394 -0.3420 -0.0413
25579W        W29177  13.729  13.440  12.640 -0.2050  0.0116 -0.2795
25580W        W29178  12.463   9.349   4.716  0.1299 -0.4657 -0.1299
25581W        W29179   0.599  15.100  16.005  0.2498 -0.0639  0.1084
25582W        W29180  15.948  11.449  12.581 -0.1055 -0.0226 -0.0401
25583W        W29181   1.983  15.231  12.123  0.0296  0.0203  0.0485
25584W        W29182  11.113  11.747  13.585  0.2318  0.0644  0.0774
25585W        W29183   8.743  15.509   6.844  0.3228  0.1699  0.2278
25586W        W29184  10.759   0.188  12.090  0.1911  0.1609 -0.1415
25587W        W29185  13.521   8.866  15.982 -0.1347  0.3806  0.2163
25588W        W29186   5.030  10.794   8.892 -0.0743 -0.1594 -0.0355
25589W        W29187  10.861  12.131   0.480  0.0665  0.1798 -0.0861
25590W        W29188   3.458   4.326  11.163 -0.0231 -0.2362 -0.0135
25591W        W29189   5.192   9.174  11.640 -0.1512  0.0567 -0.2413
25592W        W29190   7.627   7.617  15.304 -0.1752 -0.0563  0.2597
25593W        W29191  10.156  13.473   6.074  0.2245 -0.2045  0.1622
25594W        W29192   1.745  10.619  14.959  0.0813  0.1619  0.2219
25595W        W29193   1.096   2.034  11.036 -0.0561 -0.0904  0.3620
25596W        W29194   7.903   6.752   6.153  0.2907  0.2090  0.2914
25597W        W29195  13.950   7.262  15.248 -0.0897 -0.0446  0.1446
25598W        W29196   5.271   0.974  10.126  0.0026 -0.0814  0.2356
25599W        W29197   3.124  13.167   5.985 -0.0884  0.3014 -0.0766
25600W        W29198   2.176   5.034  10.705  0.1280 -0.0815 -0.0477
25601W        W29199   5.268   9.374   8.117  0.0091 -0.0046  0.0418
25602W        W29200   5.086   5.310   8.092  0.3211 -0.2125 -0.1610
25603W        W29201  12.862   3.420   4.541  0.5930 -0.0877  0.0843
25604W        W29202   2.100   0.820  12.094 -0.0862 -0.1978 -0.3406
25605W        W29203   5.681   3.264  14.241 -0.2173  0.2846 -0.1186
25606W        W29204  13.679  11.814   7.385  0.0394  0.2797 -0.1001
25607W        W29205   8.657  11.606   0.268  0.1600 -0.0596 -0.0970
25608W        W29206   6.028   4.943  15.268 -0.4042 -0.0850 -0.1831
25609W        W29207   6.362   4.637  10.594  0.2590  0.2603 -0.1279
25610W        W29208  15.491  12.871   0.224 -0.0953 -0.1874  0.1472
25611W        W29209   6.212   1.492   0.047  0.0348  0.2710  0.0237
25612W        W29210   5.139   4.654   0.762 -0.2318 -0.4913 -0.1312
25613W        W29211  11.521   6.440   0.419 -0.0619  0.0059 -0.1140
25614W        W29212  14.329  15.507   7.038 -0.2647  0.2530 -0.2805
25615W        W29213   6.626   0.440   1.056  0.2080 -0.0408 -0.2408
25616W        W29214   0.772   0.087   4.306  0.2666  0.0532  0.3763
25617W        W29215  13.663   3.596   5.638  0.3620  0.0584  0.1656
25618W        W29216   5.509  15.900  12.135  0.1024  0.1544  0.0159
25619W        W29217   1.112   2.617   6.000 -0.1760 -0.0607  0.1809
25620W        W29218  11.009  10.263   4.427 -0.0858 -0.1464  0.0013
25621W        W29219   8.328   8.402  16.045 -0.1873  0.1474 -0.2062
25622W        W29220  12.297   8.453  11.731 -0.0059  0.4389 -0.0516
25623W        W29221  15.981   9.989  14.640 -0.0412  0.2388 -0.0545
25624W        W29222   0.567  15.310   4.490  0.0325 -0.1321  0.0121
25625W        W29223   9.806   4.791   4.555  0.2573 -0.0893  0.1509
25626W        W29224   5.911   7.162  15.108 -0.2387  0.2767  0.2067
25627W        W29225   5.181   5.018   2.069  0.1111  0.2348  0.2385
25628W        W29226  10.628  15.696   9.296  0.2976  0.2110  0.0319
25629W        W29227  10.469   3.724   8.938  0.1128  0.2039  0.1045
25630W        W29228   4.649  11.950   8.932 -0.4363 -0.3950 -0.0788
25631W        W29229   9.270   7.359  10.020  0.1551 -0.0241  0.0077
25632W        W29230  11.362   5.261  14.880  0.2055 -0.1310  0.2159
25633W        W29231   7.546  13.007  15.936 -0.0790 -0.1081  0.0383
25634W        W29232  13.144   8.110   8.898  0.1589 -0.3981  0.0005
25635W        W29233   4.906   0.503   3.238  0.1560 -0.0188 -0.0721
25636W        W29234   4.851   5.154   6.960 -0.2724  0.0002  0.1043
25637W        W29235   1.651   7.560   7.913  0.1044 -0.1076  0.1489
25638W        W29236   6.824   9.764   5.272 -0.1639  0.1500 -0.1789
25639W        W29237   0.163  11.118   5.614 -0.0780 -0.0760  0.0067
25640W        W29238  13.097  11.006  12.772  0.0424 -0.2608  0.2050
25641W        W29239   0.845   3.448  12.557  0.2452 -0.1354 -0.0796
25642W        W29240   1.221   6.448   7.650  0.0445  0.0678  0.0269
25643W        W29241  12.342  12.514   3.607  0.3367  0.1118 -0.2733
25644W        W29242  13.634  15.235  12.140  0.3398  0.1885  0.0450
25645W        W29243  15.160   4.035   8.648  0.2186  0.2092  0.2078
25646W        W29244   9.822  13.934   9.348 -0.0277 -0.3801 -0.1049
25647W        W29245   0.114  10.730   7.115  0.2469  0.1581 -0.1418
25648W        W29246   1.913   3.965   1.159  0.2237  0.3755 -0.0692
25649W        W29247   8.038   9.582  13.579  0.1956  0.0465 -0.3222
25650W        W29248   4.585   0.783   2.984  0.0072 -0.0162  0.0803
25651W        W29249  15.062   5.703  11.931  0.1373  0.1641 -0.3974
25652W        W29250   0.294   2.264   6.482  0.0507  0.2791 -0.1858
25653W        W29251   4.726  13.316   6.415  0.1593 -0.2538 -0.1764
25654W        W29252  11.536   4.730   8.920  0.0663  0.0961  0.2622
25655W        W29253  12.844   2.834  11.645  0.0653 -0.0646 -0.1692
25656W        W29254   5.594  14.197  14.833 -0.0367 -0.2258 -0.0130
25657W        W29255   6.025  11.695   3.073  0.1246 -0.1993  0.1657
25658W        W29256  14.926   4.722  11.882  0.3343  0.0558  0.0168
25659W        W29257   3.964   7.568   0.469  0.0750 -0.2004  0.0677
25660W        W29258  16.055   9.902  12.346 -0.4187  0.2752  0.0189
25661W        W29259  11.993   4.000  11.604  0.0184 -0.2220  0.1975
25662W        W29260   6.593  14.419  12.210 -0.0032 -0.2212 -0.1395
25663W        W29261  14.977  15.416  15.172 -0.0057 -0.1188 -0.2064
25664W        W29262  12.959   9.773   0.718  0.1180 -0.0421 -0.1099
25665W        W29263   1.200  15.726   4.277  0.0916  0.2117 -0.0152
25666W        W29264   2.533  14.528  10.502  0.0925 -0.3169 -0.3404
25667W        W29265  10.555   5.250  13.720  0.4650 -0.0598  0.4381
25668W        W29266  14.178   3.909  16.001  0.1106 -0.0496  0.4624
25669W        W29267  10.125  15.304  15.945 -0.0561 -0.0558 -0.0041
25670W        W29268   2.170   4.894  13.795  0.1487 -0.0638  0.0266
25671W        W29269  13.629  13.311   2.992 -0.1902 -0.0220 -0.0511
25672W        W29270   5.690   2.566  12.715  0.0734 -0.0474  0.1904
25673W        W29271   3.607   0.404  11.646 -0.2089 -0.2916 -0.1128
25674W        W29272   4.974   5.803   5.444 -0.1683  0.4781 -0.2577
25675W        W29273   6.008   0.604  12.980  0.2128 -0.2482 -0.3251
25676W        W29274   1.108   3.447   6.816  0.1406 -0.2331 -0.2833
25677W        W29275  10.864   0.092  14.585 -0.3650 -0.1955 -0.0466
25678W        W29276   4.043  12.821  15.465 -0.1431  0.0030 -0.0971
25679W        W29277   1.760  10.160   3.954 -0.3517 -0.1776 -0.0093
25680W        W29278   0.564   3.141   6.545  0.0773 -0.0341 -0.0365
25681W        W29279   1.730   0.747  12.903  0.2104 -0.1832  0.1610
25682W        W29280  15.833  12.247   6.083  0.1538  0.1461  0.0939
25683W        W29281  15.960   7.018   9.204  0.0823  0.0149 -0.1226
25684W        W29282   2.863  15.230   5.838  0.1592 -0.1184 -0.0339
25685W        W29283  15.648  13.713   5.513 -0.0822 -0.1990  0.2698
25686W        W29284   3.245  12.777   1.005 -0.3037  0.3579 -0.2626
25687W        W29285  15.453   3.583   4.999 -0.2434  0.3438  0.3127
25688W        W29286   1.285   1.259   5.245 -0.1749  0.2640  0.3731
25689W        W29287   4.532   2.280   6.865 -0.1317 -0.2044  0.2420
25690W        W29288   3.940   0.250   3.440 -0.2462  0.3107 -0.2206
25691W        W29289  12.328   8.040  10.245 -0.2090 -0.3174 -0.0931
25692W        W29290   7.848   1.493  12.539  0.0768 -0.2613 -0.3140
25693W        W29291  14.235  16.299   5.525  0.0620 -0.1146 -0.2275
25694W        W29292   8.620  16.249   0.904  0.0113  0.1196 -0.0385
25695W        W29293  12.671   5.605  11.151  0.0097 -0.2756  0.1353
25696W        W29294  14.900  10.329  11.324  0.3158  0.2365 -0.1313
25697W        W29295   1.396   7.122   1.168  0.2320 -0.2107 -0.2214
25698W        W29296   0.282  13.353  10.117  0.0989  0.2297  0.1018
25699W        W29297  15.777   4.055   4.934  0.1166 -0.0432 -0.3048
25700W        W29298  10.761   6.193   9.637  0.1415 -0.1773 -0.0501
25701W        W29299  14.523   7.878  15.775  0.1076 -0.0027 -0.1010
25702W        W29300  15.729  14.433  12.109 -0.1792  0.0832  0.0097
25703W        W29301  14.012  10.936  15.926 -0.0420  0.4146  0.0316
25704W        W29302   6.480  12.765  13.553 -0.0742 -0.1558 -0.0249
25705W        W29303  12.159   5.570   8.371 -0.2625  0.0707  0.0104
25706W        W29304  10.651   1.030   9.037 -0.0425  0.3191  0.1348
25707W        W29305  15.723  10.327   6.486  0.2911  0.1446 -0.1394
25708W        W29306   6.312  12.545   5.740  0.0213 -0.1088 -0.1181
25709W        W29307  13.504   2.905   4.411 -0.3003  0.1498  0.0398
25710W        W29308  14.249  16.155  11.432  0.1738  0.1242  0.1416
25711W        W29309  12.030   3.318  13.601 -0.5418  0.0512  0.2534
25712W        W29310  16.218  12.799   3.998 -0.0309 -0.0331 -0.0403
25713W        W29311  10.756   2.629   4.437 -0.0872  0.1163  0.1344
25714W        W29312   8.256  15.871   2.434  0.1138 -0.2030 -0.0463
25715W        W29313  12.929  10.968  15.754  0.0337  0.0773 -0.2147
25716W        W29314   0.035   3.245  16.294  0.0025 -0.0073  0.1202
25717W        W29315   0.378   3.337  12.276 -0.3705 -0.2252  0.1485
25718W        W29316  15.794  10.908  16.175 -0.0616  0.0223  0.0009
25719W        W29317   3.383  14.115   1.516  0.1564 -0.3315  0.1591
25720W        W29318   0.434   5.227   7.356 -0.2612  0.0626 -0.2724
25721W        W29319  10.756   9.032   8.488 -0.1855 -0.3575  0.2364
25722W        W29320  13.025  12.496  15.177  0.0547  0.0730 -0.2062
25723W        W29321  15.965   5.264  13.012 -0.0527 -0.2796  0.0918
25724W        W29322  10.114  15.983  14.507  0.1021  0.0957  0.0697
25725W        W29323   9.557   8.221  13.050 -0.0359  0.0774  0.0243
25726W        W29324   1.778  12.728   2.680 -0.2586  0.0445  0.0316
25727W        W29325  15.766  16.127  11.326 -0.2290  0.5093  0.0063
25728W        W29326   6.600   0.722  13.126  0.0654  0.0657 -0.0230
25729W        W29327  13.039  11.413   9.226 -0.0427 -0.0210 -0.2804
25730W        W29328  10.717  13.644   0.733 -0.0206 -0.0153 -0.3610
25731W        W29329   8.720   4.192   5.991 -0.0821  0.2721 -0.0054
25732W        W29330   0.419   1.439   1.056  0.1804  0.0673  0.0466
25733W        W29331  10.942   4.642   8.814  0.1187  0.0473 -0.2546
25734W        W29332   2.283   0.333   1.876  0.0607  0.0463  0.0688
25735W        W29333   2.285  12.956   9.642 -0.3053  0.1001  0.2562
25736W        W29334   4.348  15.047  12.849 -0.0445 -0.3742 -0.0205
25737W        W29335  12.308   1.320   0.306  0.0048 -0.1482 -0.1014
25738W        W29336   6.240   8.211  13.284  0.0274  0.0022  0.0518
25739W        W29337   1.438   4.777  10.190  0.0536 -0.0528  0.0249
25740W        W29338   5.838   3.280  15.091  0.0668  0.1419  0.1087
25741W        W29339   4.592   3.208   6.222  0.1894 -0.1811 -0.0936
25742W        W29340  15.353   2.636   2.076  0.0067  0.2550 -0.3947
25743W        W29341  11.489  11.319  15.359 -0.0891  0.0915 -0.1568
25744W        W29342   5.109  10.641   9.747 -0.1580 -0.2266 -0.0496
25745W        W29343  15.594   7.016  11.644 -0.1823 -0.1957 -0.1844
25746W        W29344  13.756   1.248   1.397 -0.0927  0.1497  0.1973
25747W        W29345   9.991   9.584  10.065 -0.0941  0.0692 -0.1502
25748W        W29346  12.012  13.705   4.775 -0.1838 -0.1246 -0.2609
25749W        W29347   4.746  14.363  10.441 -0.0436  0.0846 -0.0315
25750W        W29348   2.731  13.619  11.289 -0.0942 -0.0763 -0.3545
25751W        W29349   0.735   8.756   1.796  0.1100 -0.1506  0.1468
25752W        W29350   1.781  14.609  15.872 -0.1677 -0.3314  0.0548
25753W        W29351   3.141  10.981   9.050 -0.0225 -0.0043  0.1036
25754W        W29352   7.374   5.283   9.372  0.2532 -0.5455  0.2858
25755W        W29353   7.899  13.894   2.062  0.4417  0.1718 -0.0393
25756W        W29354  12.782  12.523   0.741 -0.1472  0.0354  0.1345
25757W        W29355  12.433  15.007  11.396 -0.1854  0.1194 -0.1938
25758W        W29356  15.240  12.245   1.024 -0.2482  0.2797 -0.0861
25759W        W29357  11.935   2.909  14.929  0.1585  0.2158  0.1089
25760W        W29358   9.184  11.001  12.090 -0.0252  0.1656  0.1896
25761W        W29359  12.984  11.413   6.874 -0.3898  0.1342  0.0726
25762W        W29360  11.057   0.822   3.157  0.1072 -0.0923  0.0275
25763W        W29361   2.660   3.377   4.176  0.0657 -0.0351  0.1272
25764W        W29362  13.339   2.211   6.132  0.0122 -0.0982 -0.0729
25765W        W29363   0.708  15.333  13.832 -0.0824  0.3198  0.1517
25766W        W29364   9.460   0.718  15.785 -0.2020 -0.0379  0.3598
25767W        W29365   8.722   0.224   8.705  0.2883 -0.2666 -0.1502
25768W        W29366  16.116  10.015   7.245 -0.1403 -0.1486 -0.0858
25769W        W29367  10.796   6.210  13.489 -0.0825  0.3044 -0.0821
25770W        W29368   7.674  12.967   2.606  0.0720  0.0700  0.2724
25771W        W29369   7.494   8.556  12.463 -0.3021  0.1753 -0.0765
25772W        W29370   8.097  15.671  14.983 -0.0917 -0.1150 -0.0903
25773W        W29371  13.287   3.741   2.946 -0.1640  0.1263 -0.0141
25774W        W29372  10.149   5.230   3.388  0.3288  0.1406 -0.2048
25775W        W29373   5.145  11.636  11.875  0.1480  0.2432  0.1572
25776W        W29374   2.522  10.645   8.382  0.1297 -0.0283  0.0499
25777W        W29375  13.755   8.548   2.573 -0.4505 -0.0420 -0.2481
25778W        W29376   4.159   4.253   1.462  0.1956 -0.4364 -0.0548
25779W        W29377   2.944  12.509  12.495 -0.5876  0.1553 -0.1171
25780W        W29378   5.490   4.820   5.854 -0.0509 -0.2937 -0.1955
25781W        W29379   9.453   4.672  11.897  0.3466  0.1956  0.0278
25782W        W29380   9.245   5.853  10.299 -0.4222  0.1834  0.0270
25783W        W29381   3.889   8.288   5.349 -0.1891 -0.3628 -0.0558
25784W        W29382   7.576  11.391   1.031  0.0223 -0.0058  0.1334
25785W        W29383   5.118  11.129   8.119  0.1493  0.3187 -0.1508
25786W        W29384  15.847   0.792   9.137  0.2548  0.2089 -0.0475
25787W        W29385  15.863   3.890  13.270  0.1159  0.3327  0.3111
25788W        W29386   6.370   1.263   1.400  0.0939 -0.4778  0.0730
25789W        W29387  11.408   0.550   5.653 -0.3516  0.0885  0.1562
25790W        W29388  13.641   6.670   7.542  0.2101  0.1152 -0.0230
25791W        W29389   0.819   9.229   8.939  0.1877  0.1037 -0.1721
25792W        W29390   7.608  14.189   7.949 -0.0498 -0.0983  0.1399
25793W        W29391  10.085   0.502  13.028  0.0839  0.0200  0.0195
25794W        W29392   2.748   5.629   9.325  0.2891  0.3892  0.0046
25795W        W29393   0.277  15.261   0.035 -0.0727  0.1226 -0.3224
25796W        W29394   8.780   8.610   4.102 -0.1396 -0.0413  0.1943
25797W        W29395   7.842   6.833   2.232  0.1355  0.2205 -0.1007
25798W        W29396   9.824   3.507   5.697  0.3333 -0.0440 -0.0419
25799W        W29397  12.772  15.829   1.195  0.0391 -0.1437  0.1897
25800W        W29398  14.537  14.914   3.888  0.1239 -0.0871 -0.0922
25801W        W29399   9.478   0.877   9.867  0.0472 -0.0551  0.1515
25802W        W29400  14.675  11.663   9.356 -0.0559 -0.2609  0.0871
25803W        W29401   5.115  15.568   7.226 -0.0323 -0.2606  0.1014
25804W        W29402  16.094   6.054   1.619 -0.1170  0.0108 -0.4012
25805W        W29403  14.278   8.381   4.458 -0.1442 -0.1526  0.4409
25806W        W29404  15.418  12.517  13.870 -0.2038 -0.1319 -0.0292
25807W        W29405   7.651   0.695  10.524 -0.3603 -0.0894 -0.0105
25808W        W29406  13.748  10.536   2.160  0.1730 -0.1974 -0.0865
25809W        W29407   1.384   0.341   9.554 -0.1951  0.1516 -0.1012
25810W        W29408  13.398  12.840   5.998  0.0589 -0.0314  0.0104
25811W        W29409   6.379   6.105   9.429  0.6243 -0.3244  0.1625
25812W        W29410  12.553   8.921  13.783 -0.2205  0.1656 -0.3031
25813W        W29411   0.809   9.448  13.968  0.1532 -0.2228 -0.3271
25814W        W29412   4.750  15.132  12.501  0.0525  0.0689 -0.1110
25815W        W29413  16.294  15.006   7.000  0.0927  0.2646  0.0097
25816W        W29414   0.494  13.144  10.963  0.1439 -0.1576 -0.0431
25817W        W29415  10.097  10.764   8.178 -0.2390 -0.3092 -0.1025
25818W        W29416   8.124   4.147  15.914  0.1070  0.2930  0.2508
25819W        W29417  11.823   6.667   2.581 -0.0504  0.1604 -0.0765
25820W        W29418   1.574  12.690   1.787  0.2993  0.4196  0.3163
25821W        W29419  15.797   4.848   4.556 -0.0420 -0.0244  0.1331
25822W        W29420  11.101   0.512   7.573  0.0613  0.0223 -0.0853
25823W        W29421   3.147  10.008   3.912 -0.1198 -0.3105  0.5638
25824W        W29422   8.661  15.200  14.451 -0.2741 -0.4081  0.3931
25825W        W29423   7.018  13.711   3.909 -0.1310 -0.1426  0.2430
25826W        W29424   5.523  16.259  15.696 -0.1272 -0.2206  0.2544
25827W        W29425  12.106   4.050   7.460  0.2976  0.0370 -0.1780
25828W        W29426   7.848  15.031   0.774 -0.1880  0.0849 -0.1118
25829W        W29427   3.533  14.851   7.359 -0.0004 -0.1379 -0.0556
25830W        W29428  14.063   7.042   5.821  0.1257  0.3733  0.2815
25831W        W29429   1.110   3.555   3.688  0.3164  0.1222 -0.3526
25832W        W29430   7.305  13.336   6.381 -0.1011  0.1243 -0.0044
25833W        W29431   4.829   1.801  15.647  0.0709  0.3413 -0.2093
25834W        W29432   7.599  12.902  15.434 -0.0040 -0.4255 -0.0821
25835W        W29433  13.348  11.414   7.785 -0.2254 -0.0420  0.0803
25836W        W29434  15.354  10.995   9.408 -0.1049 -0.1833  0.1112
25837W        W29435   0.513  12.638   7.639 -0.1614 -0.2711 -0.3570
25838W        W29436  13.896   7.520  14.163 -0.3177  0.2340  0.0830
25839W        W29437   5.552   4.680  14.483 -0.1973  0.1612  0.0135
25840W        W29438   7.756   9.704  11.769 -0.1367 -0.0222 -0.0726
25841W        W29439  16.116   3.057   3.406 -0.2259  0.1077  0.2241
25842W        W29440   1.062   4.202  14.432 -0.2543 -0.0881 -0.2632
25843W        W29441  15.476   7.799   2.519  0.0454  0.0613 -0.0501
25844W        W29442  13.156   7.717   0.592 -0.1839 -0.1001 -0.0666
25845W        W29443   4.867  12.141   3.698 -0.2379 -0.2221  0.1636
25846W        W29444   9.727   9.658   5.347  0.0138  0.1182  0.0395
25847W        W29445  13.697  10.457  15.990 -0.1303  0.1040 -0.1386
25848W        W29446   7.261   3.971   4.062  0.0773  0.1086 -0.0743
25849W        W29447   7.771  15.845   9.985  0.1401  0.2547  0.0305
25850W        W29448   4.294   0.720  12.185 -0.1612 -0.0980 -0.4849
25851W        W29449   2.983  14.666  10.325 -0.0376 -0.0694  0.2923
25852W        W29450   2.106   0.716   3.631  0.0732  0.2967 -0.0802
25853W        W29451   2.259   1.859   6.086  0.0677 -0.0712 -0.4380
25854W        W29452  14.016   7.300   2.454 -0.0209 -0.1190 -0.0426
25855W        W29453  11.070  15.745  12.827  0.1603  0.0859 -0.2228
25856W        W29454  12.839   3.623  12.738 -0.1676  0.0050  0.1893
25857W        W29455  13.696   5.345  14.993  0.3670 -0.2535 -0.3008
25858W        W29456  11.857  12.853  10.211 -0.0891 -0.2221  0.1162
25859W        W29457  13.965  12.199  12.075  0.0021  0.5324  0.1411
25860W        W29458   9.308   9.625  15.138 -0.0366 -0.0405  0.0527
25861W        W29459   0.229  14.450  15.227 -0.1332  0.0291  0.2145
25862W        W29460   6.560  13.650   1.578  0.0900  0.4309  0.1237
25863W        W29461   8.423   0.752   9.483 -0.0671  0.0054  0.1170
25864W        W29462   2.327  10.961   9.768 -0.1750 -0.2143 -0.1082
25865W        W29463   6.024   3.215   2.807  0.1653  0.2154  0.0530
25866W        W29464  15.834   1.491   8.834 -0.1874 -0.0553  0.1184
25867W        W29465   9.279   3.692  12.924  0.1863 -0.2223  0.1860
25868W        W29466   0.151   2.763   6.647  0.1226 -0.4060  0.2273
25869W        W29467  13.808   0.389   6.835 -0.0556  0.2911 -0.0046
25870W        W29468   5.608   6.134  10.391 -0.1145 -0.1687  0.1129
25871W        W29469   5.902  10.102  14.589  0.1012  0.2874  0.3321
25872W        W29470   1.094   1.302   6.954 -0.3204 -0.1611  0.2727
25873W        W29471   1.755  16.051  14.498  0.0362  0.0109 -0.2462
25874W        W29472  15.131   7.738   9.751  0.1034  0.0653  0.0380
25875W        W29473  13.412   5.468   6.202  0.2742  0.3434  0.2215
25876W        W29474  15.490  12.705   9.507  0.1462  0.1095 -0.0203
25877W        W29475   1.571   0.056  11.892  0.2740  0.0451  0.0049
25878W        W29476   3.760  12.649  12.918 -0.1374  0.0999  0.0795
25879W        W29477   4.287  16.035   9.967 -0.6124  0.0456 -0.1397
25880W        W29478  15.293  11.124  14.135 -0.1361 -0.3142  0.2259
25881W        W29479   9.190   0.564  14.941 -0.0797 -0.3335 -0.0167
25882W        W29480   8.363   8.864  12.436 -0.0693  0.0286  0.1069
25883W        W29481  13.856  11.404  13.274 -0.2319 -0.1307  0.0559
25884W        W29482  12.268   6.628   6.392  0.1078  0.0514 -0.1208
25885W        W29483  13.740  15.812   7.261 -0.0290 -0.3910  0.0690
25886W        W29484   0.888   1.626  12.767 -0.0502 -0.0769  0.3878
25887W        W29485  12.030   9.889   6.183 -0.1860 -0.3714  0.2006
25888W        W29486   1.420  12.959   0.536  0.2757 -0.4029  0.1299
25889W        W29487   8.156  14.450   6.538  0.0246 -0.2168 -0.3270
25890W        W29488  11.953   3.125   0.002 -0.1506  0.0828 -0.0596
25891W        W29489   1.917  15.116  15.667  0.0876  0.0038 -0.0183
25892W        W29490  14.619  13.990   8.333 -0.1658 -0.2842  0.1977
25893W        W29491   7.935   7.426   6.106  0.0283  0.0436 -0.2881
25894W        W29492  13.375  11.934   8.850 -0.0644 -0.2193 -0.0019
25895W        W29493   3.925   0.047   0.299 -0.1346  0.3248 -0.0536
25896W        W29494  15.257   6.680   2.607 -0.1644 -0.1249  0.0660
25897W        W29495   6.715   7.331  10.923  0.0093  0.0798 -0.0936
25898W        W29496   0.872  13.567   2.184  0.0929 -0.2105  0.0976
25899W        W29497   9.567   0.124   6.002 -0.0866 -0.0798 -0.0898
25900W        W29498   5.946   2.101  11.288 -0.2323  0.1528  0.1743
25901W        W29499  10.214   1.284  11.978  0.0182 -0.2294 -0.0224
25902W        W29500   4.123   2.015  14.332 -0.0283 -0.2312 -0.0076
25903W        W29501   0.098   2.557   5.202 -0.1706  0.0849  0.1725
25904W        W29502  13.159  14.609   3.741 -0.0681  0.1512  0.1383
25905W        W29503   0.752   0.465  12.526  0.0062 -0.3434  0.0939
25906W        W29504  10.093   0.556  14.051 -0.1605 -0.2284  0.3416
25907W        W29505  14.335   0.728   7.616  0.1365 -0.1901  0.1037
25908W        W29506   6.263   3.621   3.009  0.0724 -0.1845  0.0151
25909W        W29507  11.205  13.707  14.742 -0.2169  0.3682 -0.1393
25910W        W29508   3.834  14.627  13.534 -0.3803 -0.2021 -0.0629
25911W        W29509   2.481  14.504  13.762 -0.0152  0.0138 -0.0153
25912W        W29510   5.539   5.514   6.727 -0.0588  0.2091  0.2789
25913W        W29511   1.928  15.907  16.345  0.0169  0.0316  0.0620
25914W        W29512  10.466   3.792  10.519 -0.0477 -0.0389  0.1298
25915W        W29513   2.584  14.297   0.496 -0.4165  0.1847  0.1888
25916W        W29514   3.297  13.046  14.697 -0.1519 -0.0817 -0.1784
25917W        W29515  10.668  11.060  15.162 -0.1830 -0.1433  0.3540
25918W        W29516  10.897   8.547  13.186 -0.1140 -0.1512 -0.3006
25919W        W29517  12.520  13.105  13.707  0.1062  0.0423  0.5572
25920W        W29518   5.505  10.151   4.657 -0.0012  0.4408 -0.1977
25921W        W29519   7.354  14.034  14.399 -0.1549 -0.3076 -0.0672
25922W        W29520   8.916  11.469  12.203 -0.0045 -0.2104 -0.2646
25923W        W29521  10.126  10.571  10.952 -0.0521 -0.2586  0.2545
25924W        W29522  14.042   0.397   5.677 -0.0765  0.2481 -0.2582
25925W        W29523   4.091   4.684   3.298 -0.0796 -0.1474 -0.0610
25926W        W29524   4.316  14.245  11.743  0.1090 -0.1599  0.0458
25927W        W29525   7.709   4.274  10.603  0.2494  0.1744  0.4740
25928W        W29526   0.074   9.857  14.843 -0.1334 -0.0140  0.0205
25929W        W29527  12.485   3.091   9.143  0.2829 -0.1313  0.2183
25930W        W29528  12.350   2.631   4.304 -0.1937  0.0434  0.0653
25931W        W29529  14.795  13.779   6.860 -0.0603  0.3105 -0.1546
25932W        W29530   4.897   1.311  13.301 -0.3601  0.0201  0.1582
25933W        W29531   3.355   9.258   6.745 -0.0293  0.3639  0.1096
25934W        W29532  12.285   8.412  11.085 -0.2119 -0.2133 -0.2600
25935W        W29533  10.699   7.810   4.345 -0.1461 -0.3313  0.0865
25936W        W29534   0.844   5.533   1.737  0.0562 -0.1000 -0.2954
25937W        W29535  15.873  13.704   8.995 -0.0674 -0.1064  0.2174
25938W        W29536   5.592   9.756   1.632 -0.1662  0.0468  0.2211
25939W        W29537  15.099   3.467   2.565 -0.1725 -0.0432  0.1019
25940W        W29538   7.819   9.384   6.465 -0.0296  0.1876 -0.3929
25941W        W29539  14.361  13.218  11.302 -0.2663  0.2064  0.0529
25942W        W29540   2.406   1.909  16.189  0.1688  0.3402  0.0795
25943W        W29541  13.692   6.879   1.705  0.1840 -0.1452 -0.0329
25944W        W29542   5.348  10.021   2.344 -0.1413  0.2304 -0.1184
25945W        W29543  10.678   5.059   8.839 -0.0432 -0.1194 -0.1991
25946W        W29544  14.979   3.074  15.524 -0.3327 -0.0672 -0.1860
25947W        W29545  11.724   6.983   7.203 -0.1132 -0.1342  0.0632
25948W        W29546  14.594   4.893  11.400  0.1355 -0.2261  0.3856
25949W        W29547   2.135  11.404   9.767  0.2457 -0.1482  0.1861
25950W        W29548   8.978   9.979   5.784  0.1999 -0.0965  0.0735
25951W        W29549  11.535   2.497   0.484  0.1442 -0.0462 -0.0380
25952W        W29550   2.912   2.211   6.531 -0.2982  0.3298  0.5958
25953W        W29551   6.598   0.117   8.055  0.0406  0.1564  0.1381
25954W        W29552   4.660   2.012   6.132 -0.0747  0.1613 -0.3660
25955W        W29553   4.457   1.196   2.781 -0.1487  0.1784 -0.1410
25956W        W29554  13.796   2.607   5.218 -0.1006  0.2226  0.2593
25957W        W29555   6.405   2.847   0.287  0.0390  0.1656  0.1365
25958W        W29556  13.899   6.963  11.673 -0.1188  0.1029  0.0065
25959W        W29557  10.410   0.013  14.777  0.1542 -0.0300 -0.0214
25960W        W29558  10.283   2.780   3.592  0.0987 -0.0641  0.2161
25961W        W29559   0.916  12.108   3.329 -0.1020 -0.0304  0.1517
25962W        W29560   2.746   0.204  14.204 -0.1132 -0.2748  0.0539
25963W        W29561  14.947   8.243  12.863  0.0815 -0.0874  0.2959
25964W        W29562   8.424  15.208  13.438 -0.3225 -0.0325  0.2878
25965W        W29563  15.836   1.973  14.759  0.1258  0.2587 -0.0320
25966W        W29564   4.482  13.188  10.160  0.0757  0.0254  0.2615
25967W        W29565  11.736   6.608   4.559 -0.0959 -0.1839  0.1652
25968W        W29566   1.232   6.673   0.907  0.0718  0.1207 -0.4408
25969W        W29567   4.259   0.442  10.890  0.1354  0.1277 -0.1692
25970W        W29568   4.733   8.248   6.585 -0.0771  0.1055 -0.1487
25971W        W29569   9.252   8.235   0.630 -0.1832  0.3340  0.0700
25972W        W29570  13.819  14.931  14.287  0.1011 -0.0557  0.2855
25973W        W29571  12.501   5.814   0.106  0.1454  0.2290 -0.0746
25974W        W29572   7.819   6.114  10.388  0.1594 -0.0278  0.1585
25975W        W29573   1.498  11.774   8.140  0.2355  0.1132 -0.3789
25976W        W29574  12.411  14.607  11.044  0.2943 -0.0078 -0.0387
25977W        W29575   8.195   7.401  12.055  0.2238  0.0541  0.0414
25978W        W29576   0.540   2.022   1.735  0.0412  0.1022 -0.2809
25979W        W29577   9.008  10.486  14.877  0.2527 -0.1214 -0.2442
25980W        W29578   4.803   6.209   0.136  0.0848  0.2007  0.0907
25981W        W29579   3.768   4.212   8.543  0.0660 -0.0504  0.0851
25982W        W29580   7.432   5.730  13.075 -0.1719 -0.0893 -0.1931
25983W        W29581  14.060   7.972   0.559  0.2930  0.1041  0.0446
25984W        W29582  13.612   2.365  12.931 -0.1598 -0.0052 -0.1397
25985W        W29583   0.145   5.859   5.094 -0.2198  0.2268  0.0759
25986W        W29584  15.202  11.885  11.609 -0.0731 -0.2659 -0.0771
25987W        W29585  13.062  12.255  14.692  0.0825  0.0879 -0.1632
25988W        W29586   8.682   1.514   9.842 -0.1674 -0.0659  0.2654
25989W        W29587  14.475   5.520   2.352  0.0752 -0.2818  0.3804
25990W        W29588   1.589  15.485   5.438  0.3331 -0.0886 -0.0546
25991W        W29589   8.566  15.439  12.601  0.0470 -0.0398 -0.1872
25992W        W29590  14.428   3.397   8.636 -0.0682  0.3387  0.2368
25993W        W29591   1.873   6.243  10.277 -0.0543 -0.0585 -0.1156
25994W        W29592   8.267   0.496   7.011  0.2468 -0.0832  0.1376
25995W        W29593   6.773  12.484   6.225 -0.1548  0.1439 -0.2186
25996W        W29594  16.203  11.894   6.064  0.1443 -0.1673 -0.0208
25997W        W29595   7.598   7.351   7.818 -0.0743 -0.1111 -0.2238
25998W        W29596  13.713  10.217  11.801 -0.0196 -0.2131  0.0408
25999W        W29597   0.309   9.777  14.397  0.0004 -0.1264 -0.1890
26000W        W29598   8.009   1.775  16.106  0.3200  0.1434  0.1513
26001W        W29599  15.396   0.748   6.188 -0.1676  0.0603 -0.3670
26002W        W29600   2.423   1.111  11.047 -0.0593  0.0413  0.2362
26003W        W29601   3.093  13.372  10.171  0.1211  0.1335 -0.1243
26004W        W29602  11.733   4.424   7.359 -0.0694 -0.1787 -0.1932
26005W        W29603  13.553   1.484   0.999  0.2705 -0.4471  0.0856
26006W        W29604   9.817   1.685   5.140 -0.0759  0.2642  0.0006
26007W        W29605   6.390   3.201  12.932 -0.0568  0.0188  0.0415
26008W        W29606   0.910   3.491   8.978 -0.2633  0.2088  0.1395
26009W        W29607   0.123   1.046   4.241  0.0799  0.0576 -0.1405
26010W        W29608   3.042   3.407   5.408 -0.0511 -0.1998  0.0356
26011W        W29609   0.832   9.608  15.546  0.1448  0.2070 -0.0118
26012W        W29610   4.251  10.216   5.904  0.0821  0.0513 -0.0116
26013W        W29611  12.849   8.991   6.700 -0.0157 -0.1068  0.0963
26014W        W29612  10.380   8.193   4.568  0.0557  0.1434  0.1952
26015W        W29613   5.900  10.610   8.381 -0.0611 -0.0806  0.0389
26016W        W29614   6.834  13.154  12.136 -0.0017 -0.0993 -0.3492
26017W        W29615   1.060   6.868   2.103 -0.0256  0.0491 -0.0107
26018W        W29616   6.282   3.485   8.971  0.2563 -0.3090 -0.1501
26019W        W29617   0.119   2.145  12.988 -0.1760 -0.1059 -0.1551
26020W        W29618   1.497   7.436   4.758 -0.0317  0.1186 -0.1162
26021W        W29619   5.742  10.827   4.219  0.0022 -0.5331  0.2089
26022W        W29620  10.386   2.370  13.197 -0.0513  0.1792 -0.2335
26023W        W29621  11.313   8.821  11.932  0.0440  0.1979 -0.0311
26024W        W29622   9.127  11.436   4.550 -0.1052  0.0227  0.3631
26025W        W29623   0.636  16.117   8.984 -0.1164 -0.1611  0.1273
26026W        W29624  13.752   3.224  13.257 -0.4660 -0.1771  0.1188
26027W        W29625  11.567   8.823  10.694  0.1814 -0.0576 -0.3173
26028W        W29626   6.839  13.183  12.694  0.4857  0.1598  0.1913
26029W        W29627  11.213   7.646  13.471 -0.0209 -0.1138  0.1887
26030W        W29628  13.682   0.196   9.983  0.2068 -0.1137  0.2766
26031W        W29629   4.222   7.161  12.279 -0.2279 -0.0031  0.0078
26032W        W29630  11.667   8.675  13.970 -0.1441  0.0061 -0.0237
26033W        W29631  11.861   9.972   9.780 -0.1140 -0.0152  0.0149
26034W        W29632  14.383   0.549   1.988  0.0555 -0.0489 -0.0366
26035W        W29633  15.094  10.359  13.181 -0.2219 -0.0374 -0.0147
26036W        W29634   2.941   4.468   7.386 -0.1342  0.1035  0.2286
26037W        W29635   6.953   2.927   3.662  0.0060 -0.0822  0.1051
26038W        W29636   9.638   0.666  14.665 -0.1588 -0.2229 -0.5812
26039W        W29637  10.769  13.625   1.758 -0.1524  0.2393 -0.1882
26040W        W29638   7.275   1.782   9.014 -0.3517 -0.0194  0.1422
26041W        W29639   5.284   0.098  14.470  0.0340 -0.1234 -0.4226
26042W        W29640   1.628   0.606   0.837 -0.1484  0.2605 -0.0129
26043W        W29641   7.998  13.521  11.972  0.0692  0.3043 -0.1225
26044W        W29642  12.203   8.266  15.617  0.0219 -0.0948 -0.1575
26045W        W29643   5.840   3.422   2.283 -0.2542 -0.1380  0.0838
26046W        W29644   8.332  10.732   1.480 -0.0027 -0.2004  0.1170
26047W        W29645   8.254  13.877  11.698 -0.2555 -0.2124 -0.1314
26048W        W29646   5.416  12.705  10.712  0.0831  0.0050  0.0502
26049W        W29647  13.091   3.426   0.873 -0.1410  0.2936  0.2056
26050W        W29648  10.344   4.836  16.018  0.0077 -0.1963  0.0433
26051W        W29649  11.284  13.776   3.940  0.2121 -0.1062  0.1530
26052W        W29650   7.217  11.733  15.351 -0.1098  0.2054  0.0551
26053W        W29651   7.173   8.676  12.994 -0.1838  0.0173  0.0521
26054W        W29652   5.752   8.718   4.479 -0.2606  0.1467 -0.1994
26055W        W29653  11.010   9.890   2.673  0.2865 -0.1833 -0.0237
26056W        W29654   8.196  14.273   0.215 -0.1286  0.0021  0.5147
26057W        W29655   4.946   6.098   7.772  0.0746 -0.1497  0.0722
26058W        W29656  14.563   9.712   4.806 -0.0845 -0.0663 -0.2796
26059W        W29657   6.773  14.339   5.538  0.0982 -0.1432  0.3843
26060W        W29658   6.980   2.117  10.889 -0.0218  0.0532 -0.3312
26061W        W29659   7.362   7.256   9.574  0.1700 -0.2365  0.3233
26062W        W29660   7.862   5.143   6.355  0.2854 -0.0207 -0.2425
26063W        W29661  12.163   1.712   7.374  0.0912 -0.0506 -0.0181
26064W        W29662   7.796   6.608   6.630  0.1440 -0.1011  0.2341
26065W        W29663  13.782  13.026   9.055  0.1168 -0.1314 -0.1569
26066W        W29664  15.788  12.006   8.998 -0.1263 -0.1042  0.0643
26067W        W29665   2.813  12.632  13.015 -0.2086  0.3482 -0.1150
26068W        W29666   7.438   9.014  13.250  0.0723 -0.1716  0.0884
26069W        W29667   0.322   9.273  12.354 -0.1413 -0.0832 -0.0510
26070W        W29668   1.784  11.555  16.121 -0.4362 -0.2801  0.2890
26071W        W29669  10.745  12.144   7.705 -0.0069 -0.1414  0.0772
26072W        W29670  15.599  15.692  12.081 -0.1241 -0.0155 -0.0939
26073W        W29671  13.078   6.676   5.272 -0.2316 -0.0595 -0.0253
26074W        W29672   1.523  10.724  10.025  0.2054  0.2560  0.3135
26075W        W29673  11.490   3.896  14.665 -0.2109 -0.0543 -0.0733
26076W        W29674   0.699   1.422  13.989  0.1963  0.0358 -0.2410
26077W        W29675   3.729   1.991   8.061  0.0720  0.0608 -0.1483
26078W        W29676  12.530  13.769   5.579 -0.1219  0.0578 -0.1014
26079W        W29677   9.087   3.838   2.946 -0.1413 -0.0286 -0.2697
26080W        W29678  13.571   3.206  11.324 -0.1749 -0.3100  0.2079
26081W        W29679   6.273  15.005   8.809  0.0507  0.3050 -0.0717
26082W        W29680   3.135   3.251   5.894  0.2295 -0.0610 -0.0244
26083W        W29681   7.569   5.153   5.282 -0.0027  0.0922 -0.0140
26084W        W29682  10.310   7.010  15.198  0.0846 -0.0550 -0.0432
26085W        W29683  10.904   3.574  10.356  0.1466  0.2843  0.1828
26086W        W29684   9.593  16.107   7.808 -0.3145 -0.1361  0.0470
26087W        W29685  14.189  10.204   6.058 -0.0547  0.0473 -0.0370
26088W        W29686   7.250   2.090   9.483  0.0339  0.0246  0.1047
26089W        W29687   2.097  15.730  11.214  0.2646 -0.1065 -0.2100
26090W        W29688   8.616   0.906   8.280  0.1919 -0.3879 -0.0661
26091W        W29689  11.242   9.723  12.479 -0.1067 -0.0361  0.2005
26092W        W29690   5.490  10.429  15.218  0.1314  0.2889 -0.0915
26093W        W29691  11.779   6.578  16.294  0.1058  0.0497 -0.0446
26094W        W29692  13.321   9.222   7.674 -0.2614 -0.0892  0.2312
26095W        W29693   3.610  15.562  15.647 -0.0845 -0.1020  0.1125
26096W        W29694   9.134   6.181   3.140  0.2196 -0.3221  0.3533
26097W        W29695   4.960  14.696  11.659 -0.2500 -0.0304 -0.0685
26098W        W29696   7.607   2.320  16.134  0.3410 -0.1741  0.1121
26099W        W29697   1.317   0.983  13.047 -0.0075 -0.2923 -0.0718
26100W        W29698   3.220   5.086   1.177  0.3567 -0.0151 -0.0483
26101W        W29699  12.056  14.813   8.692  0.0341 -0.2375  0.1135
26102W        W29700   3.964   0.963  13.493  0.1491 -0.0407  0.1212
26103W        W29701  12.936  15.912   3.623  0.2532  0.2062 -0.1784
26104W        W29702  13.816   7.663   2.674  0.0052 -0.1081 -0.1523
26105W        W29703   2.534   0.963   7.054 -0.1995  0.0970 -0.1761
26106W        W29704  11.126  15.692   4.807  0.0842  0.1034 -0.0091
26107W        W29705   4.723   5.788   3.585 -0.2825 -0.0851  0.3174
26108W        W29706  11.530  12.163   4.242 -0.0648  0.0186  0.1250
26109W        W29707  16.176  15.753   2.730  0.4296  0.0824 -0.2491
26110W        W29708  10.508   9.306  14.518 -0.1065 -0.0863 -0.0378
26111W        W29709   7.501   1.981   1.888 -0.0244 -0.2919  0.0621
26112W        W29710  14.605   3.308   5.362 -0.0928 -0.2587  0.2147
26113W        W29711   3.810  13.522   0.703 -0.2283  0.0638  0.0626
26114W        W29712   8.267  11.402  12.411  0.0858 -0.0843 -0.1055
26115W        W29713   4.113   6.413   3.130  0.2295  0.1467 -0.2761
26116W        W29714  11.376   7.175  13.524 -0.1305 -0.2837 -0.1897
26117W        W29715   5.524   6.418   4.893 -0.0357  0.0643 -0.0773
26118W        W29716  13.034  12.708  10.945 -0.0186  0.3444 -0.3244
26119W        W29717   6.256   0.847   0.764  0.1592  0.0349  0.0261
26120W        W29718   0.326  13.345  14.823  0.4411 -0.1168 -0.3139
26121W        W29719   9.391  12.807   3.413 -0.0011 -0.1445  0.0814
26122W        W29720  14.755   5.349   5.575 -0.0979 -0.1134  0.3493
26123W        W29721   8.096  12.597  10.048  0.0679  0.0698 -0.0593
26124W        W29722  13.149   2.319   1.779 -0.2740 -0.2802 -0.0179
26125W        W29723   0.237   6.844   1.432 -0.1289  0.2068 -0.1280
26126W        W29724   7.052   2.951  10.711  0.2656 -0.1307 -0.0109
26127W        W29725  14.941  12.005  11.171 -0.2474  0.0069  0.2380
26128W        W29726   0.760   8.926  13.230  0.1237 -0.0275  0.1280
26129W        W29727  14.239   4.302  13.549 -0.0846 -0.0057  0.1028
26130W        W29728   0.748   2.134   9.176  0.0658  0.1213 -0.0543
26131W        W29729   0.772   8.584  15.548 -0.0587  0.0592  0.3084
26132W        W29730  12.889   5.578   6.807 -0.0713 -0.3513  0.0134
26133W        W29731   2.401  15.274   4.650 -0.0503 -0.2501 -0.3200
26134W        W29732   6.415  15.931   3.022  0.3536  0.0016 -0.2082
26135W        W29733  13.842   6.017  10.127  0.1151 -0.2919  0.1605
26136W        W29734   2.251  12.647   6.951 -0.2642 -0.0596 -0.0857
26137W        W29735   8.020   1.510   5.237  0.1572 -0.1598  0.2163
26138W        W29736   8.137   9.925  11.625  0.2450 -0.0315  0.1807
26139W        W29737   6.129   7.688   2.418 -0.1105 -0.1977 -0.1138
26140W        W29738  12.858   2.474  11.290 -0.0454  0.2567 -0.1043
26141W        W29739  12.386   6.094   5.635 -0.1452 -0.0525  0.0785
26142W        W29740   4.977   6.701   7.840 -0.1890  0.1709 -0.1038
26143W        W29741   5.179  11.489   2.961  0.3851  0.0508 -0.1099
26144W        W29742  13.661   4.765  14.738 -0.1111 -0.2073  0.4196
26145W        W29743   1.413   8.482  10.233  0.2089  0.2025 -0.2245
26146W        W29744  16.250  12.780  11.338  0.1379  0.2589 -0.1481
26147W        W29745  13.039   5.529   1.494 -0.1778 -0.0726  0.0637
26148W        W29746   3.934  10.858   3.661 -0.0127 -0.0099  0.1834
26149W        W29747   1.858   0.401  10.813 -0.1078  0.5335 -0.0041
26150W        W29748   0.975   4.698   3.577 -0.2180 -0.0218  0.0350
26151W        W29749   4.006   3.283  15.718  0.1311 -0.0134 -0.1391
26152W        W29750   9.081   3.585   9.222  0.2897  0.0509 -0.2034
26153W        W29751   5.524   0.852  11.679 -0.1664 -0.0037 -0.1653
26154W        W29752   3.175   0.377  14.513  0.2854  0.0054 -0.2177
26155W        W29753   2.270  15.220  14.519 -0.0374 -0.2646  0.0250
26156W        W29754   0.158   6.663   2.137 -0.2428  0.3354  0.0522
26157W        W29755  13.878   7.284  12.573  0.1839 -0.0400  0.0262
26158W        W29756   4.941  10.382   5.331  0.0814  0.1174 -0.0345
26159W        W29757   9.990  14.302  13.740 -0.1298  0.1542  0.2178
26160W        W29758   8.371   1.026  15.064  0.1162 -0.0137 -0.1143
26161W        W29759   8.326  11.946   1.958 -0.2532  0.0074 -0.0483
26162W        W29760   9.106  11.856  15.704  0.0548  0.1955 -0.0210
26163W        W29761  10.964   5.705   8.070  0.0627 -0.0268 -0.0784
26164W        W29762  14.228   6.330   3.824 -0.3961 -0.0588 -0.2535
26165W        W29763   5.031   2.353  11.510  0.0953 -0.2550 -0.2282
26166W        W29764   4.823   1.416   7.971  0.4943  0.0696  0.0044
26167W        W29765  11.087   5.337  13.322  0.0756 -0.0003 -0.0754
26168W        W29766  15.240   7.223  11.283  0.0474  0.2083  0.0434
26169W        W29767  12.598   3.538   9.408  0.1525  0.1612  0.1181
26170W        W29768  10.263   2.620   6.472  0.3832  0.1065 -0.0405
26171W        W29769   9.682   7.510   4.722 -0.0713 -0.0085 -0.2137
26172W        W29770   0.111  15.117  12.015 -0.2779  0.1591  0.0802
26173W        W29771   1.634  13.043  14.470  0.0150 -0.2189  0.0549
26174W        W29772   5.311   1.492  15.054  0.0096  0.1747  0.0702
26175W        W29773   5.040  10.436   1.561 -0.2040 -0.2355  0.0431
26176W        W29774   8.312   6.051  13.250  0.2613  0.0841 -0.2995
26177W        W29775   7.947   0.069   9.099  0.1330  0.1237 -0.4512
26178W        W29776  14.182   1.653  10.772  0.0856  0.0053 -0.2105
26179W        W29777   4.861  14.375  11.273  0.2316 -0.2847  0.2288
26180W        W29778  13.628  15.840   5.933  0.0927 -0.0510 -0.1739
26181W        W29779  12.174   9.523   5.128 -0.2239 -0.0157  0.0278
26182W        W29780   6.168  15.348  12.416  0.0128  0.2128  0.2231
26183W        W29781   1.606   8.754  15.289  0.0715 -0.0161 -0.0193
26184W        W29782  13.289   1.129   9.244 -0.2192  0.0646 -0.0096
26185W        W29783  11.780   5.068  10.777  0.0835  0.1461  0.3561
26186W        W29784   3.931  12.386   2.090 -0.1836 -0.1565  0.4003
26187W        W29785  12.199  15.401  10.977 -0.0696  0.0634 -0.1851
26188W        W29786  13.025   8.193   0.698 -0.2711 -0.0254  0.1645
26189W        W29787  14.615   1.597   3.009  0.3122  0.1566  0.0009
26190W        W29788  14.648   0.299   8.976  0.1199 -0.0872  0.2639
26191W        W29789   4.207  11.654  12.919 -0.0052  0.2141 -0.1284
26192W        W29790  10.864   8.151   0.231 -0.0754  0.0363  0.1864
26193W        W29791   5.547   4.243  15.411 -0.1828  0.0764 -0.1254
26194W        W29792   7.112   8.438   0.069  0.1057 -0.0240 -0.0907
26195W        W29793   8.211  11.851   8.850 -0.1984  0.1175 -0.2960
26196W        W29794  11.742  16.110  15.038  0.0936  0.0942 -0.0353
26197W        W29795   9.656  11.889  15.837 -0.1116  0.1504 -0.1944
26198W        W29796   6.737   8.124   8.585  0.1170 -0.0783 -0.0267
26199W        W29797   6.045   4.098  15.410  0.0417 -0.0423  0.1399
26200W        W29798   7.890   8.578  10.691 -0.2455 -0.0767 -0.1717
26201W        W29799  11.542   8.310   1.419  0.3030  0.3003 -0.1833
26202W        W29800  10.764  10.611  12.136 -0.0261 -0.1763  0.2091
26203W        W29801   7.367  13.309   1.077 -0.0792  0.0172  0.2730
26204W        W29802  14.780   5.398   3.096  0.3703  0.1136 -0.1606
26205W        W29803  11.597   1.684  14.375  0.0339  0.1601  0.1544
26206W        W29804  14.473  15.201  15.085  0.1308  0.0067 -0.1729
26207W        W29805   6.932   5.688  12.714  0.3013  0.1443 -0.0451
26208W        W29806  13.971   6.518   0.720  0.0429  0.0751  0.2866
26209W        W29807   7.583  12.360   7.128  0.3236 -0.1410 -0.0065
26210W        W29808   8.985   2.241   3.161  0.3120  0.1388  0.3153
26211W        W29809   5.673  11.466  14.494 -0.1486 -0.1378  0.1369
26212W        W29810   8.965   8.332   7.793 -0.0537 -0.0303  0.0529
26213W        W29811   1.099   2.679  16.196  0.0166  0.0912 -0.1708
26214W        W29812   4.719   3.011   4.816  0.2411  0.2995  0.0865
26215W        W29813   7.686  16.254   1.526 -0.0690  0.2503 -0.1968
26216W        W29814  10.018   3.885   8.115 -0.2669 -0.0086 -0.0284
26217W        W29815  11.272  13.814   2.592 -0.0041  0.1257  0.0565
26218W        W29816  14.395   1.951   4.065 -0.4831  0.1789 -0.1538
26219W        W29817   9.678   1.704  16.119 -0.3280 -0.0343  0.1545
26220W        W29818  12.366  10.218   2.670  0.1032  0.0332  0.5121
26221W        W29819   4.618   1.753   7.647 -0.1777 -0.1696 -0.0556
26222W        W29820  14.497   1.387   8.597 -0.1246 -0.0695 -0.1743
26223W        W29821   7.681   4.845   9.419  0.0845  0.2983 -0.0152
26224W        W29822   5.285  14.736   9.365 -0.0510 -0.0557 -0.0552
26225W        W29823   9.253  12.897   9.179  0.1254 -0.2545  0.2089
26226W        W29824   3.084   4.236  12.429  0.1640  0.0479 -0.1098
26227W        W29825  16.060   4.890  15.051  0.1364 -0.1264  0.0541
26228W        W29826   2.147   9.968   4.268  0.1518  0.1528  0.1246
26229W        W29827   1.875   6.533  16.212 -0.4238 -0.1772 -0.1586
26230W        W29828   9.748  10.279  13.627 -0.0617 -0.2688  0.0741
26231W        W29829   3.343   0.198   8.726 -0.1602 -0.0104 -0.2796
26232W        W29830   5.781   5.363   5.784  0.2517 -0.1464 -0.0460
26233W        W29831   7.472  12.166   6.699 -0.0091  0.1154 -0.1241
26234W        W29832   5.933   9.971   4.197 -0.3296 -0.0048 -0.0208
26235W        W29833  12.121  11.620  14.376 -0.0903  0.0137  0.0110
26236W        W29834   2.669  16.228  13.858  0.0973  0.1260 -0.2943
26237W        W29835  11.599   9.684  14.896  0.0252  0.2057  0.0389
26238W        W29836  16.123   2.778  12.324  0.3002 -0.0134  0.0701
26239W        W29837   7.521   7.995  15.610  0.1137  0.0766 -0.2843
26240W        W29838  12.769   0.383   2.403 -0.0238  0.0214 -0.1089
26241W        W29839  14.618  10.607   4.437 -0.1031  0.0549  0.1853
26242W        W29840   3.838   6.767   0.695 -0.0027 -0.0060  0.3771
26243W        W29841  10.367  12.333   0.738 -0.0594  0.2807 -0.3077
26244W        W29842   4.609   9.850  16.056  0.1376  0.0489 -0.0278
26245W        W29843  10.123   5.074   0.672  0.0800  0.3105  0.1128
26246W        W29844   5.350   7.587   0.872 -0.0966 -0.1798  0.3984
26247W        W29845   0.540   0.990   5.622  0.0758 -0.0911  0.2436
26248W        W29846   6.142  10.099   0.845  0.1825 -0.1205  0.0071
26249W        W29847  15.414   9.437  14.047 -0.0141  0.0214 -0.2050
26250W        W29848   6.692  12.980   3.071 -0.0739 -0.5812  0.0963
26251W        W29849  11.194  10.995   6.369 -0.1225  0.0566  0.1280
26252W        W29850   0.172   3.024   9.068  0.0006  0.2759 -0.1358
26253W        W29851  12.576   8.014  10.708 -0.1115 -0.1384  0.3089
26254W        W29852  11.631   9.566   6.366 -0.1691  0.2777  0.1555
26255W        W29853   1.867  10.890   9.577  0.2450  0.3061 -0.4141
26256W        W29854   1.754  13.343  14.876 -0.2583  0.2226 -0.1072
26257W        W29855   7.619   1.093   5.916  0.2380 -0.0301 -0.2021
26258W        W29856  12.972   1.829   4.087  0.0778 -0.1985  0.1142
26259W        W29857  12.566   6.840   3.924  0.0746 -0.0910 -0.1001
26260W        W29858   3.481   6.346  13.925  0.0556  0.2632 -0.1749
26261W        W29859  13.376  14.197   3.421 -0.1013 -0.1091  0.2235
26262W        W29860   8.220  12.502   5.375  0.1672 -0.3346 -0.1374
26263W        W29861  11.548   7.667  13.937 -0.3170  0.1763 -0.1297
26264W        W29862  10.407  11.802   0.527 -0.1247  0.0219  0.1699
26265W        W29863   2.038   1.847   3.960 -0.0066  0.3787  0.1353
26266W        W29864   2.653   9.535  13.494 -0.3520 -0.0527 -0.2313
26267W        W29865  13.804  12.552   3.510  0.0255  0.1230  0.2586
26268W        W29866   6.166   5.380   5.300  0.0907 -0.1912 -0.2552
26269W        W29867   1.304   1.633  11.243  0.3534  0.1340 -0.1456
26270W        W29868   3.263   5.252  12.411 -0.2892 -0.2290 -0.0099
26271W        W29869  16.054  10.331  10.434  0.1811  0.0543 -0.0061
26272W        W29870  15.914   0.055   3.577  0.0013 -0.1305 -0.1508
26273W        W29871  11.499  12.663   4.449  0.1377 -0.0313 -0.2609
26274W        W29872   3.835   7.489  14.851  0.1461 -0.0754 -0.1928
26275W        W29873   4.480  13.854  11.980  0.1133  0.0281  0.4802
26276W        W29874   2.217   0.424   9.156 -0.0385  0.0364  0.1818
26277W        W29875   4.144  13.742  15.897  0.2146  0.1181  0.0109
26278W        W29876   7.895  10.145   8.062 -0.1125 -0.5290 -0.1276
26279W        W29877   4.594  11.782   7.670  0.2638  0.3190  0.0956
26280W        W29878   0.189  10.220  10.521 -0.2260 -0.1112  0.0127
26281W        W29879   3.954   6.985  12.714  0.0342 -0.0811 -0.2061
26282W        W29880   4.455   2.022  15.039  0.2915 -0.0291  0.0879
26283W        W29881   7.575  15.449  10.283  0.1965 -0.3164 -0.1953
26284W        W29882   0.884  12.932   0.444  0.0459 -0.0914 -0.1860
26285W        W29883  11.582   5.137   8.623  0.2431  0.1115 -0.2147
26286W        W29884   5.905  11.660  12.062 -0.0034  0.3123  0.0017
26287W        W29885  13.645   3.443  10.295  0.0778 -0.1412 -0.0613
26288W        W29886   9.216  14.560  10.506 -0.0173 -0.4468 -0.1478
26289W        W29887  11.627  16.088  13.672  0.0991  0.0404 -0.1218
26290W        W29888   2.907   4.947   6.528  0.2893  0.0887  0.1736
26291W        W29889   9.308  10.422   7.201 -0.1306  0.0924  0.1810
26292W        W29890  10.113   2.106   6.414 -0.1312  0.2247 -0.0882
26293W        W29891   4.508   1.557   3.676  0.0183  0.0777  0.1741
26294W        W29892   1.568  15.209  16.124  0.1884  0.1455  0.0062
26295W        W29893   8.352   8.719   3.573  0.0605  0.2269  0.2492
26296W        W29894   5.581   9.091   3.803  0.1136 -0.0009  0.1301
26297W        W29895  12.830   2.514   2.975  0.1528 -0.2517 -0.1667
26298W        W29896   5.590  12.418   2.920  0.0378  0.0800 -0.2192
26299W        W29897  15.483   5.792  15.290 -0.3181  0.0774 -0.0394
26300W        W29898  10.927   0.512   0.931 -0.1261 -0.1845  0.0569
26301W        W29899   2.269  12.475  14.776  0.0852 -0.1890 -0.0462
26302W        W29900  11.222   4.089  14.186  0.0495 -0.4644 -0.2141
26303W        W29901  14.118  11.062   7.638  0.1248  0.1673  0.0227
26304W        W29902  15.030   1.376  14.368 -0.1225 -0.1003  0.0703
26305W        W29903   9.608   8.457  11.893 -0.1604 -0.0039  0.2182
26306W        W29904   5.209   1.413   8.782  0.0628 -0.1077  0.3222
26307W        W29905   9.732  14.150   2.506 -0.1242 -0.3356 -0.0590
26308W        W29906   8.928   7.875   3.685  0.0272 -0.0639  0.0627
26309W        W29907   2.732  11.472   0.215 -0.0736 -0.0250  0.1672
26310W        W29908  14.539   2.847   6.125  0.0305  0.1969 -0.0454
26311W        W29909   7.906  14.468   4.154 -0.0564 -0.2505 -0.0097
26312W        W29910  15.354  13.646  14.870  0.2447 -0.1347 -0.0092
26313W        W29911   2.117   1.657  13.839 -0.2556 -0.0306 -0.2519
26314W        W29912  10.808   1.554   6.354  0.1062 -0.1366 -0.1814
26315W        W29913  15.223   0.627   5.016  0.1304 -0.2490 -0.1291
26316W        W29914   0.119  10.480   7.913 -0.3518  0.1561 -0.0643
26317W        W29915   6.828   2.407  11.918 -0.1139 -0.2520 -0.1268
26318W        W29916   4.139  13.495   1.829  0.1088  0.0490 -0.1726
26319W        W29917  10.483   8.376   5.041  0.1497  0.0135 -0.0863
26320W        W29918   7.194  16.278   8.341 -0.0751 -0.2153  0.1094
26321W        W29919   4.645  12.905  12.963 -0.0680 -0.1361  0.1240
26322W        W29920  11.210  15.975   2.594 -0.0633 -0.0161  0.0073
26323W        W29921  12.335   7.877  15.266  0.1296 -0.1572 -0.1946
26324W        W29922   8.979   8.658   2.200  0.0568 -0.1080 -0.1838
26325W        W29923   2.537  10.465   1.236 -0.1630 -0.0567 -0.0586
26326W        W29924   0.025   7.497  11.770 -0.0760  0.1649 -0.2047
26327W        W29925  14.210   3.959   5.751  0.1007  0.2170 -0.0457
26328W        W29926   7.549   9.169  11.726 -0.1354 -0.4303 -0.2471
26329W        W29927   7.777   6.482   2.912 -0.1769  0.1632  0.2519
26330W        W29928  11.059   2.672  15.501  0.0982 -0.0580 -0.3971
26331W        W29929  13.926  15.407  14.381  0.0353 -0.0808 -0.0212
26332W        W29930   5.778  12.644  11.042 -0.2054 -0.0588  0.1218
26333W        W29931   5.236   2.927  12.061 -0.1026  0.0238 -0.1091
26334W        W29932  12.444   5.741   4.725 -0.1807  0.3550  0.2225
26335W        W29933   9.892   0.957  12.828  0.1858  0.2599 -0.2560
26336W        W29934   3.326   5.021   5.418  0.0076 -0.3507  0.3039
26337W        W29935   1.874  11.914   8.514  0.0659  0.1783  0.0522
26338W        W29936   1.181   4.514   6.837  0.1429  0.0940  0.4223
26339W        W29937   9.054   2.861   7.928 -0.0650 -0.1670 -0.0312
26340W        W29938   4.200   3.117   7.900  0.2862 -0.3168  0.2103
26341W        W29939   9.623   8.312  11.097  0.0635 -0.1699  0.0285
26342W        W29940  15.969   8.234   7.410  0.3094  0.1758  0.0428
26343W        W29941  10.350   0.087   9.466 -0.0764  0.1173  0.0915
26344W        W29942   6.272   4.803   8.926 -0.0624 -0.1533  0.2150
26345W        W29943   8.123   7.244  11.290 -0.1716 -0.0390  0.0506
26346W        W29944  13.975   0.208   2.694  0.4619 -0.0191 -0.3347
26347W        W29945   4.834   1.228   5.212  0.1533  0.2301  0.0166
26348W        W29946   9.133   5.029   8.049  0.0801  0.1704  0.1263
26349W        W29947   1.420   5.446   0.171  0.0422 -0.2978 -0.1743
26350W        W29948   2.828   9.298   3.892  0.0680 -0.3531  0.3110
26351W        W29949   1.365  11.648  10.313  0.2263  0.0182  0.2378
26352W        W29950  10.655  16.211   9.125  0.1085 -0.1679  0.2212
26353W        W29951  14.415  16.144   5.966 -0.0784  0.5182  0.2539
26354W        W29952   4.514   8.669   0.285 -0.1338  0.0492 -0.0594
26355W        W29953  11.806   9.503  11.033 -0.0005 -0.1203 -0.0315
26356W        W29954   9.488   3.185  12.627 -0.4654 -0.1388 -0.1523
26357W        W29955  12.595   5.649  15.549  0.1680 -0.2776 -0.1355
26358W        W29956  10.828  15.742   7.831 -0.3374 -0.1870  0.3042
26359W        W29957  12.624   1.987   7.871 -0.2135  0.1418  0.0978
26360W        W29958  12.617  15.952  14.694 -0.0924 -0.3108  0.2684
26361W        W29959   1.353   3.727  11.905  0.3428 -0.1345 -0.3130
26362W        W29960   3.766   8.946  12.791 -0.2874  0.2787  0.0093
26363W        W29961   8.056   7.949  13.163 -0.1152  0.2016 -0.2146
26364W        W29962   4.687   9.117   2.073 -0.4667  0.0157 -0.1517
26365W        W29963  11.189  11.920  12.343 -0.0206 -0.2052 -0.1572
26366W        W29964  14.826   4.202   1.575 -0.1674  0.1030  0.2529
26367W        W29965   8.917   3.475  14.499  0.0494 -0.4335  0.3486
26368W        W29966   4.022   3.498   5.509  0.1744  0.0564 -0.0639
26369W        W29967   6.101   9.280   8.986 -0.1134 -0.2917 -0.2090
26370W        W29968   4.824   4.883   5.578 -0.0192 -0.1043 -0.3594
26371W        W29969  15.192   4.071  11.570  0.3972  0.3103 -0.2315
26372W        W29970  13.307   9.884   1.238  0.3076  0.3652  0.5966
26373W        W29971   1.908   4.739   5.316  0.3005  0.0453 -0.2342
26374W        W29972  10.410  14.541  12.746  0.1173 -0.2104  0.0410
26375W        W29973   7.929  12.948  13.058 -0.1236  0.0052 -0.1449
26376W        W29974   5.127   5.568   6.365 -0.2862  0.0766 -0.3025
26377W        W29975   4.522   6.615   4.852  0.2420  0.0236  0.1629
26378W        W29976  14.544   2.292   7.410  0.1174 -0.0647 -0.0867
26379W        W29977  10.636   4.440   1.324 -0.0844 -0.1803 -0.1384
26380W        W29978  12.856   5.476   4.044 -0.2651 -0.0467  0.1708
26381W        W29979   4.135  13.503  11.864  0.1540 -0.2230 -0.3026
26382W        W29980   6.746   7.973   4.524 -0.0927 -0.0365  0.1066
26383W        W29981  16.197  13.730  13.604 -0.0799 -0.1335  0.1347
26384W        W29982   0.012   9.711  13.497  0.1844 -0.0097  0.0226
26385W        W29983   6.431   5.704  12.688 -0.5566  0.1480 -0.0404
26386W        W29984   5.684  11.238   8.525 -0.1972 -0.2037  0.0676
26387W        W29985   9.499   5.491   0.937  0.2346  0.1617  0.3071
26388W        W29986  10.158  13.335   8.970 -0.1446 -0.1108 -0.3373
26389W        W29987   0.252   3.662   3.871 -0.0898 -0.2142  0.0297
26390W        W29988   4.058  14.847  14.320 -0.1059 -0.0227  0.3258
26391W        W29989   3.309   6.295   7.023  0.0872 -0.0981  0.0131
26392W        W29990   5.887   4.563  10.511  0.1475 -0.1259 -0.0689
26393W        W29991   2.614   7.638  12.802 -0.3135 -0.0139 -0.2777
26394W        W29992   2.775  12.291  11.049 -0.0202  0.0670  0.0424
26395W        W29993  16.086   2.080  10.573 -0.1830 -0.0262 -0.1894
26396W        W29994   3.733   2.767   6.869 -0.0509 -0.1513 -0.1289
26397W        W29995  11.122   1.947   3.215 -0.0534  0.0709  0.0334
26398W        W29996  15.608   7.612   1.459 -0.0608  0.7041  0.2437
26399W        W29997  10.817   3.868   6.119  0.0387  0.2513 -0.0721
26400W        W29998  11.239  13.364  12.484 -0.1469 -0.3251  0.1494
26401W        W29999  16.362   9.570   7.346 -0.3043 -0.0933  0.1285
26402W        W30000  11.198   4.998   0.018 -0.2313 -0.1833 -0.1034
26403W        W30001   9.895   9.558   3.147 -0.1387 -0.0942  0.1799
26404W        W30002  12.817   3.764  11.285 -0.1057  0.0083  0.0610
26405W        W30003   1.189   7.193   1.644  0.0020  0.0164  0.0998
26406W        W30004   0.891   4.270  13.191 -0.1135  0.0861  0.4768
26407W        W30005   1.999   0.763   1.948 -0.0449  0.0971 -0.2818
26408W        W30006  13.382  10.682   2.454 -0.3619  0.2159  0.1198
26409W        W30007   3.922  10.531   0.143  0.2110  0.0415 -0.2803
26410W        W30008   8.712   6.068   2.331 -0.3887  0.0256  0.0253
26411W        W30009   2.552  14.068  13.945  0.1119  0.0085 -0.3544
26412W        W30010  13.182  16.371   3.733 -0.2350 -0.2365  0.2351
26413W        W30011   5.450  14.773   7.131  0.2142  0.0001 -0.0165
26414W        W30012  12.407   5.663  10.171  0.4100  0.1256 -0.1064
26415W        W30013  12.731  11.458   3.305  0.1082 -0.3454  0.1189
26416W        W30014   3.772   4.349   6.640 -0.1293  0.2092  0.0992
26417W        W30015   4.942  14.583   1.924 -0.1000 -0.0323 -0.1001
26418W        W30016   1.701   6.229   2.186  0.0466 -0.0628 -0.0158
26419W        W30017  10.324  15.740  10.309  0.0839  0.0977 -0.3753
26420W        W30018   1.171   6.108   9.656 -0.2124 -0.1112 -0.1186
26421W        W30019   4.087   0.426  12.657  0.1141  0.0998 -0.1881
26422W        W30020   2.538  14.475   2.075 -0.5514  0.1782 -0.1958
26423W        W30021   9.533   6.470  15.113  0.1221  0.0025 -0.2429
26424W        W30022  13.140   1.697  12.026  0.0038 -0.0161  0.1131
26425W        W30023   1.793  14.569  14.507 -0.1067 -0.0384  0.2649
26426W        W30024   5.553  14.477   9.697  0.0702  0.0777  0.1095
26427W        W30025  15.765   2.271   1.974  0.0015 -0.0394 -0.0496
26428W        W30026   5.580  13.915  15.824  0.0228 -0.0073 -0.1444
26429W        W30027  14.790  12.539   9.849  0.0265  0.4213 -0.2305
26430W        W30028   7.951   4.620   2.547  0.1225 -0.1580 -0.1519
26431W        W30029  13.540   3.737   2.468 -0.1459  0.1679 -0.0260
26432W        W30030   6.023  12.721  10.570 -0.1539 -0.2716  0.3188
26433W        W30031   0.529   3.413  16.360  0.1795 -0.0414  0.5098
26434W        W30032   9.989   7.198   4.966 -0.2434  0.2780  0.5544
26435W        W30033   4.565   2.354   1.875  0.0923 -0.0852  0.1522
26436W        W30034  11.732  14.116   8.141 -0.0424 -0.1272 -0.0301
26437W        W30035   3.309   2.495  10.885  0.1456 -0.0947 -0.1188
26438W        W30036  10.516   1.529   3.334 -0.1222  0.1344  0.0646
26439W        W30037   9.259   2.228   7.962  0.0759 -0.1444 -0.0785
26440W        W30038   9.783   3.185  15.065  0.1244 -0.2645  0.0403
26441W        W30039   3.849   9.096   0.422 -0.1668 -0.0042 -0.3075
26442W        W30040   7.706   9.891  14.346  0.1028 -0.0490  0.0280
26443W        W30041  11.079   0.802  13.174 -0.0777 -0.0286  0.2418
26444W        W30042   1.794  15.800   5.078  0.2715 -0.1761 -0.4038
26445W        W30043   0.217  10.378   1.183 -0.2159 -0.2381 -0.4718
26446W        W30044  12.961   6.720   8.445 -0.1513  0.0402  0.0591
26447W        W30045   2.492  12.159  12.751  0.2774  0.1895 -0.1569
26448W        W30046  14.496   0.113   1.264 -0.0577  0.2818  0.0307
26449W        W30047   7.408   4.947   7.620  0.0623 -0.0820  0.1448
26450W        W30048  11.816  15.396   0.933 -0.5666 -0.1333  0.0224
26451W        W30049   5.516  14.585   1.050  0.1798 -0.2897  0.4577
26452W        W30050  10.102   3.945  15.340  0.0725 -0.0375 -0.0328
26453W        W30051  12.571   5.478  13.624 -0.4043  0.1994  0.2271
26454W        W30052  12.239   6.351   2.729  0.1652 -0.1294 -0.0395
26455W        W30053  11.301  13.371   3.106  0.2716  0.1531  0.0724
26456W        W30054  11.758  15.533  11.179 -0.1297  0.1044  0.1589
26457W        W30055   9.134   5.081  12.066 -0.1799 -0.1330  0.1012
26458W        W30056   3.294   2.728   0.992  0.1403  0.1965  0.2375
26459W        W30057  14.682   4.166  11.730 -0.0095 -0.2053 -0.1150
26460W        W30058  13.530   7.531   3.373 -0.0114 -0.0676 -0.2664
26461W        W30059   2.769   0.233   6.598  0.0691  0.0300 -0.0214
26462W        W30060   2.764   1.964   2.236 -0.0354  0.0083 -0.0778
26463W        W30061   1.173   4.324   6.323  0.3146 -0.2310  0.1531
26464W        W30062   2.088   2.446   8.118  0.0575  0.0506 -0.0441
26465W        W30063   6.596   8.907  11.433 -0.0934 -0.2219 -0.3017
26466W        W30064   4.052  13.267   3.231  0.2112 -0.0020 -0.1487
26467W        W30065  11.197   5.357   5.061 -0.1527  0.2031 -0.0838
26468W        W30066  11.466   5.683  10.647  0.0223 -0.0439  0.0492
26469W        W30067   1.862  16.172   8.845 -0.3046  0.1121 -0.3223
26470W        W30068   7.749  12.038   8.758  0.1647 -0.2880  0.3012
26471W        W30069   7.003  15.684   8.446  0.2178 -0.2515  0.2837
26472W        W30070   3.236   0.069  11.567  0.0970 -0.0762  0.2187
26473W        W30071  12.887   5.652   7.797  0.0196 -0.1621 -0.0106
26474W        W30072  14.866  16.229   8.759 -0.1943  0.0053  0.0457
26475W        W30073   7.550   2.906  10.719 -0.0696  0.1194 -0.2516
26476W        W30074  16.214   1.176  14.320 -0.1081  0.0272 -0.2559
26477W        W30075  13.306   6.452   2.404  0.2764 -0.1400  0.0402
26478W        W30076  14.554   9.201  13.502 -0.0345 -0.1204 -0.1430
26479W        W30077  15.529  14.824   6.541  0.2606 -0.1609  0.0403
26480W        W30078   3.782  15.784  11.868 -0.0821  0.1872  0.1208
26481W        W30079   7.003  13.241   4.047  0.2348  0.1860  0.2751
26482W        W30080   0.928  15.973  14.292 -0.3097  0.0041 -0.1695
26483W        W30081  13.675  12.355  13.334  0.1938  0.1536 -0.3378
26484W        W30082   6.692   8.061   0.117  0.1023  0.0684 -0.0285
26485W        W30083   5.485   0.689   4.845 -0.1463  0.0565  0.2555
26486W        W30084   8.382  13.123   9.287  0.1220 -0.1908  0.2699
26487W        W30085  12.782   4.987   3.915  0.1093 -0.2021  0.4962
26488W        W30086  15.058  13.821   9.148 -0.1191  0.1695 -0.0839
26489W        W30087   5.355  14.291   1.898  0.0258 -0.3628  0.4075
26490W        W30088   0.556   9.945   0.492 -0.0710  0.2730 -0.2600
26491W        W30089   4.960  15.996   4.219 -0.2371  0.1221  0.1327
26492W        W30090   7.708  11.934   9.682  0.2560 -0.1540  0.0448
26493W        W30091   4.659  13.986   4.264  0.0477  0.1117  0.2306
26494W        W30092   5.026   9.531  12.122 -0.2388  0.0179  0.1587
26495W        W30093   9.448  12.197   2.401  0.0465 -0.1265 -0.1597
26496W        W30094   4.809   1.180  10.022  0.0843 -0.1433  0.1162
26497W        W30095  15.233   8.087  13.686  0.2589 -0.0531 -0.0761
26498W        W30096   6.116   6.369  12.018  0.5198 -0.2794  0.1750
26499W        W30097   7.382  13.666  10.672 -0.2268  0.0934  0.1108
26500W        W30098   8.864  10.033   7.089 -0.0719 -0.3983  0.0885
26501W        W30099   9.939  15.367   6.009 -0.1650  0.0828 -0.1330
26502W        W30100   7.290   2.082   5.953  0.0091 -0.0606 -0.3114
26503W        W30101   0.040  11.286   4.676 -0.1370  0.2782  0.3188
26504W        W30102  12.104   7.565  16.330 -0.0787 -0.0488 -0.1982
26505W        W30103   0.198  10.338  15.082  0.0167 -0.1003  0.0249
26506W        W30104   6.307   7.543  16.153 -0.0367 -0.2147 -0.0373
26507W        W30105   4.718   7.174  12.079 -0.0102  0.0977 -0.0320
26508W        W30106   8.158   6.917  10.904  0.1186  0.0251 -0.1994
26509W        W30107  13.629   5.755  14.565 -0.1995 -0.1397 -0.1491
26510W        W30108   1.829  11.881   3.861 -0.0555  0.0535  0.0083
26511W        W30109  16.236   4.131  10.385 -0.1042  0.1743 -0.2085
26512W        W30110  12.812   8.475   6.725  0.1167 -0.3398 -0.2456
26513W        W30111  11.455  10.938   5.154 -0.1083 -0.2146  0.0298
26514W        W30112   9.467  11.784   8.062 -0.0974  0.0400 -0.0645
26515W        W30113  12.956   5.219  16.267  0.0969 -0.1522  0.2410
26516W        W30114   3.649   5.389  14.074 -0.1511  0.1491  0.1217
26517W        W30115  10.968  10.545   0.437 -0.2443  0.2474  0.0184
26518W        W30116   0.926  14.169   8.735  0.3584  0.2014 -0.1425
26519W        W30117   5.296  11.115  16.169 -0.1712  0.2045  0.1832
26520W        W30118  16.125  13.461   8.643 -0.1661 -0.0654 -0.1717
26521W        W30119   9.208   0.529   5.319  0.0476  0.1083  0.1379
26522W        W30120  16.152   9.189   5.275 -0.0891  0.0578 -0.0852
26523W        W30121   4.371  14.826   8.104  0.0944 -0.2320  0.0742
26524W        W30122  13.478   4.125   9.180 -0.2687  0.0376  0.1739
26525W        W30123  15.957  15.900   6.618 -0.0251  0.0227 -0.0174
26526W        W30124   3.253   2.310  14.104  0.1540 -0.0098  0.0565
26527W        W30125   3.354   8.753  11.188 -0.2081  0.0776 -0.1668
26528W        W30126   1.240   5.031   9.144  0.1730 -0.1343  0.1301
26529W        W30127   9.348   6.532  12.627  0.0075 -0.2724  0.2129
26530W        W30128   3.004   8.546  11.475  0.0585  0.0145  0.1218
26531W        W30129   8.289   4.744   4.259 -0.0181  0.0782  0.0781
26532W        W30130  14.046  14.981  12.975 -0.1630 -0.0932  0.1219
26533W        W30131   0.385   0.712  13.168  0.2543 -0.0843  0.0916
26534W        W30132   3.210   8.587   3.530  0.1915 -0.0900 -0.2360
26535W        W30133  15.008   9.376   3.664  0.0774 -0.1979 -0.2841
26536W        W30134  12.037   5.825  14.490 -0.1121  0.1433  0.1505
26537W        W30135  16.073   2.663   8.713  0.1493 -0.1869 -0.2600
26538W        W30136  12.980   7.952   3.996 -0.1102  0.2723 -0.0198
26539W        W30137   8.303  15.863  13.989  0.1023  0.0923 -0.3765
26540W        W30138   8.626   3.681   7.165 -0.1874 -0.3174  0.4025
26541W        W30139   2.644   7.228   5.583 -0.2107 -0.0986  0.2075
26542W        W30140   0.148   0.417   4.208  0.0873 -0.3346 -0.0265
26543W        W30141   1.884   7.177  16.303  0.0600  0.1120 -0.2586
26544W        W30142  11.231   4.202   3.910  0.3608 -0.2534 -0.2005
26545W        W30143   9.289   4.895   5.505  0.1252  0.0794 -0.0576
26546W        W30144   0.196  16.243  10.918  0.1756 -0.0305  0.0752
26547W        W30145  13.409   7.951   4.358 -0.0635 -0.1194 -0.1509
26548W        W30146  14.993  12.485   2.418  0.0903  0.0197  0.3865
26549W        W30147   0.359   7.906   2.712  0.1000 -0.1226 -0.0762
26550W        W30148  15.077   8.405   9.049 -0.0616  0.3173 -0.1146
26551W        W30149   4.967  11.668   8.449 -0.3088 -0.0853 -0.0190
26552W        W30150  13.050  15.972   1.796  0.1853  0.2990  0.1960
26553W        W30151   9.894   5.137   6.125 -0.2515 -0.1444  0.0054
26554W        W30152  14.617  14.554   9.356  0.0434  0.1649  0.2013
26555W        W30153  13.578   5.722  11.019 -0.0158 -0.0133  0.2569
26556W        W30154  14.586   6.795   8.491 -0.0412  0.0306 -0.0907
26557W        W30155   1.565   6.722   9.658  0.2805 -0.0365 -0.0430
26558W        W30156   8.341  16.287   9.399 -0.1320 -0.0812  0.3391
26559W        W30157  15.370   1.192   3.746  0.0888  0.1600  0.0796
26560W        W30158   1.126   9.648  16.012 -0.1060  0.0261 -0.0512
26561W        W30159   0.720   8.026  13.288 -0.2048 -0.0362  0.2791
26562W        W30160   3.174  13.318  11.370 -0.0108 -0.1865  0.2119
26563W        W30161   1.408  16.372   2.385  0.0411 -0.0299 -0.0670
26564W        W30162   2.772   0.777  10.764  0.2776  0.1087 -0.2003
26565W        W30163   0.619   9.045   7.094  0.1483  0.2140 -0.1547
26566W        W30164  15.708   7.207  13.982 -0.3601 -0.0528 -0.0012
26567W        W30165   1.475   9.246  16.068 -0.1982 -0.1324  0.1239
26568W        W30166   8.009   9.403  15.734  0.2074  0.1981  0.0175
26569W        W30167   0.169   5.465   2.921 -0.0231 -0.2165 -0.1414
26570W        W30168  11.664   3.007  14.424 -0.1105  0.0635 -0.2293
26571W        W30169  13.122  15.338   2.971 -0.0709 -0.0733 -0.2715
26572W        W30170  10.107   5.233  14.041  0.2276  0.1142  0.1187
26573W        W30171   2.585   5.700   3.829 -0.1858  0.0100  0.2657
26574W        W30172   0.944   6.744  14.179 -0.0775 -0.1557 -0.1964
26575W        W30173   9.637   5.778  13.573  0.0994 -0.0406  0.0655
26576W        W30174   3.361  11.310   7.756  0.0469  0.3072 -0.3242
26577W        W30175   7.071  10.482   8.511 -0.0335 -0.0954  0.0294
26578W        W30176  14.094   1.301  14.694  0.1489 -0.1125 -0.1086
26579W        W30177   5.148  11.613  14.491  0.0992  0.2221  0.0990
26580W        W30178   8.484  13.296  12.661 -0.1802 -0.0707  0.2104
26581W        W30179  15.703   2.845   0.295  0.1453  0.1845  0.0911
26582W        W30180   6.216  12.588   9.630 -0.1152  0.0531  0.1864
26583W        W30181  15.135  11.511   1.454  0.0866 -0.0182 -0.1458
26584W        W30182  15.236  15.888  12.502 -0.0553  0.2358  0.0099
26585W        W30183  14.760   7.124   7.525 -0.0292  0.1578 -0.1145
26586W        W30184   4.536   2.636   8.952 -0.2401 -0.0390 -0.0175
26587W        W30185  14.297   4.405  16.123 -0.2914  0.0467 -0.0751
26588W        W30186   4.432   6.961   0.126  0.2805  0.0120  0.0577
26589W        W30187   5.539   6.513   7.789 -0.0635 -0.1551 -0.0724
26590W        W30188  12.976  10.894  11.754  0.4391  0.2191 -0.1915
26591W        W30189   3.757  12.668  11.233 -0.0958 -0.2568 -0.1113
26592W        W30190  15.135  12.594  12.898 -0.1197  0.1265  0.3379
26593W        W30191  15.971   2.176  11.056 -0.2160 -0.0548  0.0040
26594W        W30192   8.118   8.217   3.421 -0.1946 -0.0888  0.0395
26595W        W30193   8.129   4.629  10.838  0.0092 -0.1515 -0.0048
26596W        W30194   6.536   0.609   8.250 -0.0271  0.3139 -0.1476
26597W        W30195  14.952   2.614   7.418 -0.0448  0.0108  0.1236
26598W        W30196   7.768   4.955  11.720 -0.0950 -0.2964  0.2013
26599W        W30197  10.221   7.842  14.030  0.4005  0.2682  0.2582
26600W        W30198   0.967  16.230   0.957  0.1629 -0.0527  0.2666
26601W        W30199   3.815  12.946   8.890 -0.1393  0.0390 -0.0219
26602W        W30200   9.992  14.130   2.956  0.0410 -0.0551 -0.0746
26603W        W30201  14.238   0.216  11.096  0.2290  0.1896  0.1286
26604W        W30202   0.445   6.759   6.149 -0.1922  0.3026 -0.2771
26605W        W30203  14.205  10.949  15.425  0.0692 -0.0438  0.3079
26606W        W30204   9.169  11.739   1.965 -0.2115  0.1766 -0.0790
26607W        W30205  15.290  12.203   8.152 -0.1624 -0.0165  0.0247
26608W        W30206  10.892  10.313   5.422 -0.5322 -0.2066 -0.1818
26609W        W30207   3.134  13.678   6.093 -0.1887  0.1184  0.0061
26610W        W30208  10.178  15.224  11.139 -0.2689 -0.0404 -0.1980
26611W        W30209   6.903  10.986   9.275  0.1291  0.0287 -0.4306
26612W        W30210   2.420   3.281   7.192 -0.3564  0.0858  0.1441
26613W        W30211  12.862   9.945   5.650  0.3625 -0.2573 -0.0595
26614W        W30212   8.291   4.124  13.976  0.0804  0.4117  0.2382
26615W        W30213  10.479   1.873  12.956  0.0018  0.2100  0.0262
26616W        W30214   2.057   8.299  13.296 -0.0507  0.0826  0.1419
26617W        W30215   5.952  15.876   2.678  0.1036 -0.1760  0.1567
26618W        W30216   0.713   6.328  14.266  0.0093 -0.1663 -0.3627
26619W        W30217   2.053   0.168   3.144  0.2891 -0.1657 -0.0334
26620W        W30218   9.271   2.132  15.523  0.3597 -0.0617 -0.2585
26621W        W30219  11.658   1.270  14.642  0.2081  0.1164 -0.0681
26622W        W30220   2.129  12.260   5.148 -0.1049 -0.0453  0.2318
26623W        W30221  12.047   5.446  14.819 -0.0732 -0.0075 -0.0829
26624W        W30222   5.074  10.708  12.007  0.0444 -0.2409  0.0995
26625W        W30223  15.617   9.846   6.449  0.1693 -0.0686 -0.2197
26626W        W30224   9.234   7.042   6.398  0.1467  0.1152  0.1997
26627W        W30225   2.745  13.791   2.788  0.0487  0.1843 -0.0052
26628W        W30226  13.262  12.062  12.404  0.0520  0.1818 -0.1666
26629W        W30227   7.202   0.472   5.433  0.1830 -0.1918  0.0111
26630W        W30228   3.426  13.181   3.914  0.0689 -0.1044  0.4133
26631W        W30229  14.466   0.364   2.564  0.0463  0.2892 -0.0622
26632W        W30230   1.866  14.911  16.307 -0.2949 -0.1106  0.3987
26633W        W30231  12.043  10.626  10.250  0.1833 -0.0836 -0.2268
26634W        W30232  11.716   0.250   0.903 -0.0465 -0.1111 -0.1995
26635W        W30233   4.959   8.677   6.337  0.0922 -0.0057 -0.1272
26636W        W30234   6.082  15.478   0.139  0.0741 -0.2265  0.0139
26637W        W30235  10.952  15.486   9.759 -0.5071 -0.0423 -0.0439
26638W        W30236   1.749   3.137  10.551 -0.0630  0.3380  0.0321
26639W        W30237   6.738   5.428  11.171 -0.1568  0.0650 -0.1420
26640W        W30238  10.379   7.319  13.045  0.2488  0.0715  0.2993
26641W        W30239  15.032   3.735  12.160 -0.1154 -0.0322  0.0652
26642W        W30240  11.098  14.375   6.554  0.0955  0.1351 -0.0843
26643W        W30241   9.326   4.863  15.775 -0.1113 -0.0733 -0.2785
26644W        W30242   5.834  10.479   1.101 -0.3056  0.1341  0.2541
26645W        W30243  11.413   3.911   8.065 -0.0747 -0.0075 -0.0776
26646W        W30244   1.186   8.271   3.581 -0.0804 -0.1386  0.1485
26647W        W30245  13.962   2.846   7.223 -0.1464  0.3519 -0.1787
26648W        W30246   3.214   8.854  10.333  0.3903  0.2766 -0.2806
26649W        W30247  16.253   1.183  13.648 -0.3057  0.0497 -0.3973
26650W        W30248  15.399   7.261   0.096  0.1499 -0.3034 -0.2325
26651W        W30249   1.479   5.386   5.871 -0.0641 -0.0351 -0.0496
26652W        W30250   7.466   0.043   9.276  0.0354 -0.1574 -0.0438
26653W        W30251   7.382   9.490   8.683  0.4068  0.1747 -0.2745
26654W        W30252   1.639  13.694   1.742 -0.0489  0.0696 -0.2172
26655W        W30253  13.451  14.383   9.565  0.1456  0.3801 -0.3202
26656W        W30254   1.624  13.537  11.687 -0.1149 -0.1190  0.0382
26657W        W30255  12.735   6.072  10.278 -0.0386 -0.0210  0.1081
26658W        W30256   0.446   1.955  12.664  0.0019 -0.0518 -0.0521
26659W        W30257   0.236   1.789   3.928 -0.0147  0.0955  0.0260
26660W        W30258  10.893   6.410   2.163  0.1108  0.2694 -0.4004
26661W        W30259  14.051  10.577   4.989 -0.2563 -0.2184  0.2748
26662W        W30260   6.646  14.391  11.685 -0.0443 -0.2833  0.0842
26663W        W30261   4.173  10.031  15.263 -0.1197 -0.2502  0.1479
26664W        W30262  13.983   2.023   0.234  0.0417  0.2615  0.2158
26665W        W30263   7.430  14.456  10.246 -0.1860 -0.1192  0.1966
26666W        W30264  12.947  11.781  12.206 -0.0095 -0.1311  0.2897
26667W        W30265   0.436   6.709  10.534 -0.1720 -0.1073 -0.0446
26668W        W30266   0.283   2.764   0.664 -0.2187  0.0570 -0.3012
26669W        W30267  12.763   2.524   4.497 -0.1785 -0.0702 -0.1686
26670W        W30268   1.228  11.222   2.891  0.1002 -0.1449 -0.1389
26671W        W30269   4.535   9.437   1.015 -0.0420  0.0810  0.2512
26672W        W30270   1.401  16.163   5.909 -0.0503 -0.2072 -0.3322
26673W        W30271   7.676  10.544   7.757  0.1813  0.4114 -0.0373
26674W        W30272   0.765  10.201   6.312 -0.0639 -0.3974 -0.2167
26675W        W30273   8.713   2.432  15.471  0.2268  0.1891  0.1181
26676W        W30274   2.701   6.232   8.288  0.0064 -0.3200 -0.3698
26677W        W30275  10.277   0.555   5.027  0.2568  0.0925  0.0694
26678W        W30276   0.657  11.127  14.687  0.1696  0.2343  0.0205
26679W        W30277   2.457   3.692   4.502 -0.3536  0.1886  0.0351
26680W        W30278  10.097   5.373  14.575 -0.1857 -0.1823  0.2220
26681W        W30279  13.391  11.792   0.295 -0.0983 -0.3793 -0.3639
26682W        W30280   5.446   3.100  13.232  0.2844  0.1643  0.0812
26683W        W30281   6.161   1.632   5.214 -0.0809  0.2129 -0.4596
26684W        W30282   4.388  15.579  10.576 -0.2198 -0.1350  0.0018
26685W        W30283   4.226   8.354  15.134  0.1726 -0.0136 -0.1753
26686W        W30284   7.129   4.772   3.874 -0.0547 -0.1770  0.0502
26687W        W30285   8.753  14.375   4.837 -0.1011 -0.1298  0.0875
26688W        W30286  12.493  10.684  13.939  0.0063 -0.0407  0.0561
26689W        W30287   1.667  14.558  15.397  0.0204 -0.1194  0.0490
26690W        W30288   0.313   0.155  15.744 -0.1318 -0.2743  0.0001
26691W        W30289  12.822   1.711   9.569 -0.1290 -0.0122 -0.2716
26692W        W30290   2.894   1.694  12.137  0.2949  0.0202 -0.0159
26693W        W30291   6.302   1.814   5.708 -0.0740  0.3260  0.0412
26694W        W30292  12.227   9.287  13.122  0.3027  0.1210  0.2232
26695W        W30293   0.402   9.005   9.761  0.0467 -0.1404 -0.0668
26696W        W30294   5.338   7.452  10.289 -0.1783  0.1046  0.0324
26697W        W30295  11.937   8.385   8.302 -0.2372  0.0422 -0.2478
26698W        W30296   1.527   2.436  14.495 -0.0921  0.0315  0.0750
26699W        W30297  14.966  10.490   7.971  0.0902 -0.2133 -0.0690
26700W        W30298  16.328   5.048   6.635 -0.0073  0.1287 -0.1484
26701W        W30299   8.650  10.823   9.671  0.0224  0.1510 -0.0316
26702W        W30300  14.964  11.662  12.038  0.0501  0.4451 -0.2985
26703W        W30301   1.560  12.496  11.897 -0.1993 -0.2212  0.0299
26704W        W30302   8.725  10.116  14.722  0.1305 -0.1194 -0.1193
26705W        W30303   1.999   6.455   3.552 -0.5898 -0.1253 -0.0129
26706W        W30304  14.841   0.935  15.161 -0.0587  0.2055 -0.7421
26707W        W30305   6.602  11.626   5.543  0.0187 -0.2129 -0.1341
26708W        W30306  11.662   4.237  13.121  0.1783  0.0603  0.0768
26709W        W30307   7.027   7.211  11.958 -0.1882  0.0248 -0.1744
26710W        W30308   3.081  11.174   1.808  0.0518  0.2691 -0.0584
26711W        W30309   1.829   7.559  13.554 -0.2335 -0.1813 -0.1626
26712W        W30310  10.314  16.007  13.242 -0.1623 -0.0582  0.2243
26713W        W30311  15.435   3.873   2.553  0.0033  0.0525  0.2229
26714W        W30312  11.501   7.518  15.140 -0.0220 -0.4541  0.0509
26715W        W30313  13.837   4.010  12.828 -0.2026  0.0064  0.0979
26716W        W30314  12.087   3.562   0.403 -0.0124 -0.1254  0.2517
26717W        W30315   5.573   5.132  14.977 -0.1569 -0.2529 -0.1484
26718W        W30316  12.815   9.247   2.008 -0.0857 -0.0724 -0.0201
26719W        W30317   2.797   7.309   1.157 -0.0249 -0.0678  0.1859
26720W        W30318  15.094  15.010  11.558 -0.2361 -0.1597  0.1418
26721W        W30319   4.026   5.558   5.674  0.0062 -0.0939  0.1743
26722W        W30320  14.928  10.177   4.844  0.3033  0.1605  0.0927
26723W        W30321   3.413   4.561  15.888 -0.0819 -0.1160 -0.1271
26724W        W30322   2.951   4.687   4.555 -0.5130  0.1575  0.0904
26725W        W30323   1.548  11.664   4.207  0.0009 -0.1168 -0.1333
26726W        W30324   7.156   9.686   1.170 -0.0340  0.2190  0.1508
26727W        W30325   7.675  11.072   4.543 -0.2905  0.0617 -0.1429
26728W        W30326   3.649   5.911   5.656  0.0228 -0.2620  0.0761
26729W        W30327   7.904   2.625   3.692 -0.0180 -0.0968  0.1530
26730W        W30328   9.098   6.261   1.169  0.0540 -0.1445  0.4737
26731W        W30329  10.507  15.229   4.505 -0.2429 -0.0817 -0.0330
26732W        W30330   5.601   6.574   2.535 -0.1073 -0.0762  0.1377
26733W        W30331  10.041   2.501  11.457 -0.1906 -0.1419 -0.2129
26734W        W30332  11.055   5.384  13.848 -0.0329  0.1842 -0.1901
26735W        W30333  10.791   0.015   3.339  0.0094 -0.1227  0.0140
26736W        W30334  11.351  10.952  15.675  0.5797  0.0703  0.2897
26737W        W30335  12.168   1.835   4.484  0.0697  0.2001 -0.4115
26738W        W30336  12.730  12.515  11.741 -0.1943  0.0357 -0.1108
26739W        W30337   9.843   2.144   5.464 -0.1144  0.0892 -0.0783
26740W        W30338   7.290   2.309   9.004  0.1725 -0.2882  0.0800
26741W        W30339   7.991   4.741   7.076  0.0284 -0.1979 -0.0197
26742W        W30340   7.712   5.988  14.981 -0.0456  0.2180 -0.1629
26743W        W30341  11.033   4.276   6.843  0.1040  0.2767  0.3812
26744W        W30342   0.310  16.220   9.374  0.0861 -0.1575 -0.1058
26745W        W30343   7.328   0.314   8.548  0.0690 -0.0681  0.1212
26746W        W30344  14.971  14.857  13.224  0.1200  0.0913 -0.0584
26747W        W30345   6.444  10.929   7.308  0.2080  0.0479  0.1354
26748W        W30346  13.299   3.257   5.570  0.0842 -0.0467 -0.1957
26749W        W30347   3.700  16.140  13.238 -0.0956 -0.2500  0.1089
26750W        W30348  15.416   8.019   3.541 -0.2735 -0.1069  0.0728
26751W        W30349  13.898   5.588  13.153  0.1571 -0.2918  0.2011
26752W        W30350   0.877   6.046  11.391  0.1373  0.5368 -0.1565
26753W        W30351  11.737   2.683   2.475  0.0454  0.1381 -0.2398
26754W        W30352   6.377   5.561  10.880 -0.0172 -0.0271 -0.0463
26755W        W30353   5.047  10.665  14.359 -0.1704 -0.2940  0.0559
26756W        W30354   2.931   8.854   4.241  0.0502 -0.0718 -0.0418
26757W        W30355   4.014   3.617   4.500  0.2818  0.0298  0.2673
26758W        W30356  13.276  10.913  12.277  0.2631 -0.1352  0.0517
26759W        W30357   8.994   6.918   6.797  0.2223  0.1062 -0.2103
26760W        W30358  13.552   8.176   3.949 -0.1020  0.2758  0.3992
26761W        W30359  16.168  11.860   1.549 -0.0277 -0.0892 -0.1126
26762W        W30360   3.454   5.489   5.832 -0.0664  0.5697  0.2802
26763W        W30361   5.547   7.077   6.573  0.1196 -0.1333  0.0661
26764W        W30362   2.748   1.227  11.910 -0.1522  0.0065 -0.0425
26765W        W30363   7.539  11.412  11.834 -0.2262  0.0153  0.1897
26766W        W30364   9.571  10.694  12.997  0.0357 -0.2067 -0.1437
26767W        W30365  12.280   0.605  14.786 -0.0353  0.0136 -0.0982
26768W        W30366  12.816   2.362   9.679 -0.0491 -0.2741  0.0136
26769W        W30367  15.659  11.422   9.197 -0.0164  0.0040 -0.0162
26770W        W30368   5.139  12.676   5.755  0.0664 -0.0928  0.2843
26771W        W30369  13.545   0.159   7.597 -0.0525  0.1984  0.2007
26772W        W30370   0.998  10.396   8.452 -0.2117 -0.1592 -0.0080
26773W        W30371   1.779   8.822   0.907 -0.2930  0.0413 -0.0726
26774W        W30372   5.868   8.424   0.925 -0.0230  0.1438 -0.0484
26775W        W30373   1.411   0.335   4.708  0.0602 -0.3228 -0.1810
26776W        W30374  15.364  15.657   7.249  0.1344  0.1153 -0.0453
26777W        W30375  14.652   7.928   5.115 -0.1230 -0.1519 -0.0386
26778W        W30376   5.518   3.721  13.825  0.0040 -0.0928  0.2100
26779W        W30377  11.909   3.848  12.446  0.1064  0.0784  0.1837
26780W        W30378   3.548   9.757  10.614  0.1919  0.2266 -0.1068
26781W        W30379  11.424  12.904  10.548  0.4321  0.0960  0.0447
26782W        W30380   2.710   8.767   0.630 -0.1232  0.0320 -0.1546
26783W        W30381   8.892  15.002   6.404 -0.0031  0.0501 -0.3007
26784W        W30382   1.255   2.152   6.937  0.0668  0.0770 -0.1114
26785W        W30383   7.951   2.283   4.068 -0.0731 -0.1898  0.3431
26786W        W30384   3.536   7.633   9.654  0.0169  0.1551  0.0865
26787W        W30385  15.677  14.213  10.875  0.0910  0.0310  0.0000
26788W        W30386  14.432   3.471  15.034 -0.1530 -0.0818 -0.0630
26789W        W30387  14.026  15.588   3.197  0.0249  0.1804  0.0724
26790W        W30388  10.279   6.221   9.605 -0.2590 -0.3253  0.1936
26791W        W30389  15.049   7.119   4.924  0.0975 -0.1626 -0.0684
26792W        W30390  14.128   5.207   0.998  0.4942  0.2131  0.0679
26793W        W30391   9.068   2.974  12.931 -0.0026  0.1448 -0.0715
26794W        W30392   2.727   9.001   2.413 -0.1413  0.0658 -0.2506
26795W        W30393   7.295   3.828   8.143 -0.2162  0.1461 -0.1242
26796W        W30394   4.368  11.547  13.575  0.0049 -0.0078  0.0594
26797W        W30395   5.258   0.654   7.221 -0.0140 -0.1892  0.0837
26798W        W30396   2.659   4.169  10.824 -0.1641  0.1100 -0.0030
26799W        W30397   4.925   3.163   5.396  0.1719 -0.0229  0.1527
26800W        W30398  10.440  14.146   3.787  0.1817  0.0102 -0.0091
26801W        W30399  12.540   2.056   4.759 -0.1199 -0.1180  0.1024
26802W        W30400   6.125   1.340  15.481  0.0393 -0.0253 -0.0532
26803W        W30401  15.987  12.353   3.730  0.1893  0.1021  0.2807
26804W        W30402   1.965  12.261   7.124  0.0161  0.0964 -0.0668
26805W        W30403   7.908   0.807   9.681  0.1678  0.1467 -0.1427
26806W        W30404  15.571  14.824   1.052 -0.1733  0.2187  0.1633
26807W        W30405  12.138  16.319  15.189 -0.2090  0.0396 -0.0893
26808W        W30406   4.160   2.248   3.342  0.3517 -0.0955 -0.0130
26809W        W30407  13.885  13.492   5.604 -0.1940 -0.0037 -0.1371
26810W        W30408  11.590  12.377  14.639  0.0743 -0.1754 -0.0831
26811W        W30409  13.934   4.625  12.025 -0.3565 -0.3566 -0.0507
26812W        W30410   5.766  14.517  11.680  0.0324 -0.0147  0.0419
26813W        W30411  13.165   1.733   8.616 -0.0316  0.3100  0.0969
26814W        W30412  14.871  14.929  15.226  0.4152  0.0554  0.2731
26815W        W30413   5.914  12.910  12.290 -0.0394 -0.2188  0.1976
26816W        W30414   0.864   8.257  10.985 -0.1306  0.2010  0.2964
26817W        W30415   6.258   6.577  16.225  0.1385  0.0838 -0.2576
26818W        W30416  15.651   1.639   5.852  0.1978  0.3929  0.0954
26819W        W30417   4.671   0.596  11.195  0.0786 -0.0040 -0.3160
26820W        W30418   3.815   1.086   5.774 -0.1933  0.3036  0.2468
26821W        W30419   1.057   0.103  12.744 -0.0220 -0.0082  0.1327
26822W        W30420  14.312   8.747   3.863  0.0635  0.1085  0.0400
26823W        W30421   6.285   3.363   4.476 -0.0044 -0.2917  0.1192
26824W        W30422   9.485   7.738  11.081 -0.0687 -0.3670 -0.0310
26825W        W30423  13.775   1.720  10.405 -0.1145 -0.2897 -0.1103
26826W        W30424  10.180   7.678  10.455  0.1403 -0.0910  0.0002
26827W        W30425  12.724   3.847  15.461  0.3450  0.3048 -0.3551
26828W        W30426   5.896   2.579   2.100  0.0796 -0.3249 -0.3212
26829W        W30427   9.756   3.520  12.842 -0.0101 -0.1260  0.1255
26830W        W30428   0.818   5.890  12.248  0.1451 -0.0467  0.1769
26831W        W30429  13.645   6.333   1.538 -0.1846  0.1239 -0.1919
26832W        W30430   4.542   9.136   4.564 -0.0893 -0.1534 -0.0757
26833W        W30431  11.402   9.497  11.352  0.0436  0.0862 -0.3666
26834W        W30432   4.794   4.285   4.737  0.3515 -0.0502  0.4097
26835W        W30433   4.094  12.472  12.007 -0.0427 -0.2075  0.0999
26836W        W30434   6.958   3.282  15.475 -0.0411  0.0486  0.3685
26837W        W30435   6.968   1.281   8.602 -0.2983  0.1682  0.0184
26838W        W30436   2.259  10.889   1.162 -0.0727  0.0671  0.2313
26839W        W30437   3.142   8.795  13.530 -0.0492 -0.4285 -0.0235
26840W        W30438   9.408   6.993   3.917 -0.0100 -0.0640 -0.1912
26841W        W30439   7.000  13.235   0.258  0.0769  0.1270  0.4557
26842W        W30440   8.788  14.694   4.456  0.0644 -0.0551 -0.1066
26843W        W30441   6.306   9.183   6.574  0.0959  0.0465  0.0501
26844W        W30442   2.448   1.499   3.899 -0.1200 -0.0150  0.0339
26845W        W30443   8.610   7.091  14.188  0.3429 -0.0378  0.1101
26846W        W30444   5.111   9.337   0.104 -0.0194  0.1362 -0.1730
26847W        W30445  12.315   9.860   2.998 -0.0757 -0.0096 -0.2623
26848W        W30446  15.757   2.637  11.163  0.2640  0.1589  0.0682
26849W        W30447  12.579  12.283   1.185  0.0363 -0.2698  0.1398
26850W        W30448   5.018   4.918   6.025 -0.0372  0.0395 -0.1638
26851W        W30449   1.711   4.088  14.997  0.3861  0.0940 -0.3582
26852W        W30450   2.051   0.615  12.544  0.1040  0.0880 -0.0420
26853W        W30451   3.933   1.072   1.136 -0.0049  0.1345  0.2323
26854W        W30452   8.850   8.566   0.616 -0.0177 -0.0410  0.1245
26855W        W30453  15.962   5.797  12.111  0.2356  0.1384  0.0028
26856W        W30454   4.894   2.844   0.984 -0.3348  0.0592  0.2119
26857W        W30455  10.108  15.210   8.678 -0.1530 -0.1128 -0.4823
26858W        W30456   9.095  11.103  12.563  0.3771  0.0365  0.0772
26859W        W30457   6.204   6.961  14.601  0.1217 -0.2618 -0.0804
26860W        W30458  11.507   0.912   5.330  0.2413  0.0091  0.0708
26861W        W30459   3.202   2.427  15.054  0.2802 -0.0087 -0.0327
26862W        W30460  12.174  13.383   6.610 -0.1327  0.1176  0.0665
26863W        W30461  12.698  15.531  14.033  0.0259 -0.1212 -0.0945
26864W        W30462  14.582   7.346   4.949  0.2252 -0.0081  0.0605
26865W        W30463   6.540   9.676   4.097  0.2334  0.1142 -0.2416
26866W        W30464  14.527  11.476  12.384  0.5022  0.2014 -0.0419
26867W        W30465   2.810   0.235  13.508 -0.1807  0.2369 -0.0221
26868W        W30466   4.015   2.453   2.177 -0.1789  0.0474  0.1566
26869W        W30467   5.646  11.508  14.987  0.0970  0.0982 -0.1271
26870W        W30468   7.124   3.226  15.972  0.2234 -0.5451  0.1434
26871W        W30469  15.281   8.466  16.236 -0.0964 -0.3362  0.1006
26872W        W30470   8.441  10.304   8.803  0.1644 -0.1347  0.2669
26873W        W30471   5.259   2.492   7.719 -0.0006  0.0241 -0.2782
26874W        W30472   6.153   1.136  10.218  0.5045 -0.3769  0.1118
26875W        W30473  13.527  14.632   7.541 -0.0061  0.3247  0.1188
26876W        W30474  10.530   6.441  12.406 -0.1155 -0.2908  0.5007
26877W        W30475   9.340  15.689   8.761  0.1030  0.4975 -0.1466
26878W        W30476   4.024   9.302   6.179 -0.2362  0.0978 -0.2473
26879W        W30477   3.130  11.901  15.825  0.1733 -0.1956 -0.1056
26880W        W30478  12.758  15.068  14.359 -0.1970  0.2633  0.0421
26881W        W30479  13.132   9.550  14.218  0.0698 -0.2934 -0.2524
26882W        W30480   3.566   1.237   4.807  0.1878 -0.0309 -0.0262
26883W        W30481   2.654   8.235   0.539  0.1459  0.0021  0.0896
26884W        W30482   1.626   0.660   9.869  0.0076  0.0855 -0.3036
26885W        W30483   2.737   5.514   2.625  0.1725  0.2013 -0.0765
26886W        W30484   8.010   3.516   5.053  0.3859  0.1798  0.1740
26887W        W30485   1.245   7.300   6.992 -0.0370  0.0341 -0.0316
26888W        W30486   9.575   1.444   1.702 -0.1424 -0.0601  0.2208
26889W        W30487   6.376  10.533   8.470  0.1528 -0.3362  0.0668
26890W        W30488   3.497   4.246  14.858  0.0007 -0.0348  0.0907
26891W        W30489  14.968  13.715  13.904 -0.1668  0.0973  0.2111
26892W        W30490   4.634   1.918  14.492  0.0378  0.0691 -0.0728
26893W        W30491  14.324  11.484   7.915 -0.2327  0.0370 -0.0039
26894W        W30492  12.344  14.559   2.523 -0.1292 -0.0690 -0.2095
26895W        W30493  14.559   5.286   4.373  0.0581  0.0706 -0.1774
26896W        W30494   4.449   6.127  12.464 -0.1119  0.1900  0.1876
26897W        W30495   6.490   7.694   5.482 -0.0459  0.1557  0.1259
26898W        W30496  15.185   1.929  15.214  0.4261  0.0006 -0.1967
26899W        W30497   3.564   3.886  11.568  0.0156 -0.1441 -0.2469
26900W        W30498  11.191   1.912  10.844 -0.1455  0.1295 -0.1155
26901W        W30499   8.068  13.394  12.973  0.0859 -0.3081 -0.1657
26902W        W30500   4.961   7.372   5.758 -0.0065  0.0351  0.1839
26903W        W30501   5.249   2.137   0.311 -0.3346  0.2178  0.1300
26904W        W30502  13.931  12.685   8.656  0.0165 -0.2976  0.0328
26905W        W30503  14.390  11.889  11.168  0.0774  0.1180  0.0102
26906W        W30504   6.968   9.348   3.421  0.1331 -0.1838  0.2134
26907W        W30505   2.540  11.951   5.159  0.2074 -0.0632  0.1133
26908W        W30506   9.887   9.097  10.578  0.1783  0.1102 -0.0971
26909W        W30507   3.982  13.548   6.364 -0.3331 -0.1841 -0.1681
26910W        W30508   2.051  11.445   3.550 -0.0950 -0.1247 -0.1812
26911W        W30509   1.185  14.189  11.007 -0.0654 -0.1860 -0.1688
26912W        W30510  10.277  11.656   5.396  0.0864  0.1398 -0.3390
26913W        W30511   5.711  12.628   1.430 -0.4204  0.4074  0.0024
26914W        W30512  14.607   2.749   1.495 -0.0267 -0.0609 -0.3329
26915W        W30513   6.029   8.766   3.413  0.0814 -0.3902  0.0528
26916W        W30514  14.903   1.026   3.110 -0.0246  0.3203  0.1271
26917W        W30515   4.787   7.037   8.778  0.1110 -0.2180 -0.5937
26918W        W30516   6.210  13.218   5.074  0.0739  0.1159  0.1347
26919W        W30517   0.811   1.164   2.603 -0.0886  0.1440 -0.0966
26920W        W30518  11.269   2.054  12.139  0.3462  0.0823  0.4265
26921W        W30519   2.535  13.935   5.669 -0.2278 -0.1013  0.2945
26922W        W30520   2.995   4.212   3.010  0.2958 -0.0783 -0.1532
26923W        W30521   6.137   0.883  15.235 -0.0580 -0.2603 -0.3092
26924W        W30522   2.470   9.558  14.309 -0.0994  0.0713 -0.0802
26925W        W30523  14.368   8.986   3.021  0.1132  0.1330  0.2768
26926W        W30524   5.489  10.227   6.338 -0.0124 -0.0182  0.1454
26927W        W30525   5.223   8.112   3.690  0.1373  0.1788 -0.1144
26928W        W30526   6.618   9.790   0.279  0.2836  0.0522  0.0990
26929W        W30527  15.075   5.771   9.522 -0.2786  0.0935 -0.2451
26930W        W30528   3.277  15.144  13.026 -0.0427 -0.0398  0.1646
26931W        W30529   6.965   0.976  13.967 -0.1705 -0.1579 -0.0544
26932W        W30530   2.753  11.154   6.961 -0.1113  0.0250  0.1659
26933W        W30531  13.924   8.839   5.671  0.1866  0.2304  0.1478
26934W        W30532   2.815   1.446   7.254 -0.0546 -0.0272  0.0303
26935W        W30533   0.517  11.786  15.492 -0.2179 -0.1983  0.2330
26936W        W30534   9.026  13.866   9.440 -0.0847 -0.2533 -0.0608
26937W        W30535  12.017   6.808  10.979 -0.2000  0.0355  0.2784
26938W        W30536   5.572  16.301  11.148 -0.1025 -0.1105 -0.0385
26939W        W30537  12.835   3.882   0.702  0.0753  0.0770  0.2881
26940W        W30538  13.935  14.008   1.974 -0.1574  0.0807 -0.3154
26941W        W30539   8.226  11.608  15.467 -0.0493 -0.2290 -0.1173
26942W        W30540   1.715  13.460   3.109 -0.0523  0.0180  0.1673
26943W        W30541   1.218   3.481   4.240 -0.0394 -0.3391  0.1831
26944W        W30542  14.672   2.853  12.257 -0.0745 -0.0975 -0.1134
26945W        W30543   0.924   8.488   3.063 -0.0335  0.0731 -0.0876
26946W        W30544   2.837   0.648   4.178  0.0855 -0.1164  0.0599
26947W        W30545   9.355   3.980  10.982 -0.1141  0.1626 -0.0510
26948W        W30546   1.199  12.889  14.910  0.2220 -0.0286 -0.0379
26949W        W30547   9.470   4.154  12.837 -0.1743 -0.1046 -0.1614
26950W        W30548  14.406   4.837  13.686 -0.2081 -0.1419  0.1314
26951W        W30549   0.661  14.157  11.006 -0.0784 -0.0451 -0.1365
26952W        W30550   5.495   3.192   1.940  0.0762 -0.0391 -0.2744
26953W        W30551  12.065   8.386   7.262 -0.0064 -0.1768  0.0444
26954W        W30552   6.195   9.669  11.879 -0.1445  0.2051 -0.0044
26955W        W30553  10.260   4.457  10.980  0.0184 -0.0291  0.0631
26956W        W30554   9.096   6.089  13.357 -0.0508  0.1766 -0.0556
26957W        W30555   7.687   3.086   1.749 -0.1547  0.0628  0.1318
26958W        W30556  12.378   3.811   2.428 -0.2988 -0.0858 -0.0398
26959W        W30557  10.300   0.900  10.910  0.2858 -0.0331 -0.3244
26960W        W30558   9.798  11.240   7.283 -0.4938  0.1173  0.0681
26961W        W30559  15.962   8.126   1.013 -0.0394 -0.0123 -0.0778
26962W        W30560   1.000   0.068   9.711  0.0489  0.1110 -0.1196
26963W        W30561   7.063  15.264   6.733  0.0171  0.1879 -0.1432
26964W        W30562   0.110  11.912   6.699  0.2101 -0.1177  0.2521
26965W        W30563   6.654   1.086  11.826  0.0333  0.0967 -0.0481
26966W        W30564   1.992   3.035  15.302 -0.2009 -0.0887  0.0822
26967W        W30565   1.117   9.671  11.297  0.0670 -0.4778 -0.0257
26968W        W30566   8.166  13.939  14.258  0.1008  0.1961 -0.0064
26969W        W30567   8.034   2.935   7.985  0.3582 -0.0627 -0.2644
26970W        W30568  14.181  11.603  10.109 -0.2609 -0.2363  0.0089
26971W        W30569  10.255  13.028   9.417 -0.2498 -0.2032  0.1394
26972W        W30570  14.928   9.293   2.308  0.1863 -0.3360  0.0270
26973W        W30571   5.657  13.852   7.681 -0.2646 -0.0230  0.1179
26974W        W30572   7.241   8.533   8.683 -0.0490 -0.0827  0.1206
26975W        W30573  13.317   0.683   0.428  0.0626 -0.2477 -0.1371
26976W        W30574  14.457  16.167  14.213 -0.1191 -0.0187  0.2373
26977W        W30575   7.400   1.894   4.690  0.0602 -0.1376  0.3349
26978W        W30576  10.134   4.262   3.887 -0.1482 -0.4682 -0.0060
26979W        W30577   3.053   2.914  10.916  0.1681  0.2793  0.3916
26980W        W30578  12.586   1.162  15.479  0.1381 -0.0089  0.1952
26981W        W30579  10.083   9.430  13.640  0.1234  0.0634  0.0097
26982W        W30580  15.421   9.546  11.863  0.1978  0.0362  0.0987
26983W        W30581   9.568   5.778   9.373  0.0013 -0.2988  0.1932
26984W        W30582  12.809  11.376   2.212 -0.1319  0.0513  0.0815
26985W        W30583   3.786   2.721   2.546  0.0013  0.1759 -0.1306
26986W        W30584   1.362   7.377   5.233  0.2679  0.1245 -0.2801
26987W        W30585  16.169   1.624  14.081  0.0398 -0.2224 -0.0021
26988W        W30586   4.326  11.148  15.731 -0.3711 -0.2107 -0.0708
26989W        W30587   3.804  12.290   6.653  0.0205 -0.1506  0.2368
26990W        W30588   9.113   3.975   7.312 -0.3186  0.1991  0.1604
26991W        W30589   5.638  10.431  11.206 -0.5749  0.5176 -0.1582
26992W        W30590   3.154  13.801  10.586  0.3357  0.3148  0.0897
26993W        W30591   6.987   6.438   1.782  0.1106 -0.1188  0.2057
26994W        W30592   6.253   0.644  12.528 -0.2742  0.0353 -0.0283
26995W        W30593   3.033  11.952   7.250 -0.0255 -0.0372  0.2563
26996W        W30594  15.248   3.133   0.830  0.0584  0.4755 -0.0093
26997W        W30595   7.750   0.190   6.395 -0.0411  0.0336  0.1086
26998W        W30596   5.207   5.807   4.050  0.3176  0.2184  0.1404
26999W        W30597   3.566   3.151  15.497 -0.0946 -0.3945 -0.0732
27000W        W30598   8.068   6.465  14.923 -0.4203 -0.0776 -0.2978
27001W        W30599   6.572   2.705   3.905 -0.0654 -0.0448 -0.1165
27002W        W30600   0.194   5.874   6.676 -0.0565 -0.2949  0.2390
27003W        W30601   1.122   2.364   6.507  0.3105  0.2069  0.0492
27004W        W30602   0.163  14.968   7.976  0.0669 -0.1377  0.1241
27005W        W30603   3.445   2.491   7.699 -0.1495  0.1629  0.0878
27006W        W30604   7.442  12.558   4.484 -0.0401  0.0375 -0.0870
27007W        W30605  13.385   9.484   9.544 -0.1032  0.0071  0.1574
27008W        W30606  12.235   6.852  11.518  0.1365  0.3271 -0.1991
27009W        W30607   6.481  13.943  14.646 -0.1937 -0.4176 -0.0056
27010W        W30608   3.191  12.740   4.733 -0.0909 -0.2138  0.0211
27011W        W30609  10.066  10.871   8.871 -0.2518  0.0986  0.0138
27012W        W30610  10.094   6.919  12.855 -0.1243 -0.0812 -0.1171
27013W        W30611   3.879   7.333   6.975  0.2726  0.1571 -0.2166
27014W        W30612   5.732   9.959   2.034 -0.0120 -0.2297 -0.3994
27015W        W30613   0.224   6.908  10.137 -0.0747 -0.4270  0.1424
27016W        W30614   1.164   4.422   5.735 -0.0295  0.2255 -0.0362
27017W        W30615   6.033  11.405  15.679 -0.0898 -0.1559 -0.1658
27018W        W30616  15.186   9.037   0.199  0.2080  0.0570  0.2467
27019W        W30617   4.733  13.527   5.265 -0.2509  0.0332 -0.2646
27020W        W30618   5.662  14.137  12.109 -0.1354 -0.1881  0.1783
27021W        W30619   0.202  11.007  10.873 -0.0339 -0.0881  0.2067
27022W        W30620  14.928   0.741  10.280  0.0031  0.2385 -0.2964
27023W        W30621   6.300   7.884   9.439  0.0377 -0.4142  0.3963
27024W        W30622   3.637   8.591  10.418  0.0131 -0.3393  0.2939
27025W        W30623  11.457   9.884   2.934 -0.2100 -0.2997 -0.0440
27026W        W30624   7.684  11.091   5.976  0.4097  0.0644  0.0862
27027W        W30625   6.667  12.283  13.162 -0.1607  0.0581 -0.2224
27028W        W30626   3.216   7.767   5.107 -0.0693 -0.0365  0.0840
27029W        W30627   4.123  12.606   4.557 -0.1338  0.2900  0.2332
27030W        W30628   1.025  12.387  15.140  0.2351 -0.2992  0.3431
27031W        W30629   7.520   7.139   6.736  0.2520  0.2136 -0.1231
27032W        W30630   8.946   3.182   8.823 -0.2194 -0.0410 -0.1532
27033W        W30631   6.214  11.930   9.838 -0.0501  0.2386  0.0319
27034W        W30632  14.846   7.875  13.961  0.1062 -0.2110 -0.4994
27035W        W30633  13.266  11.235  15.551 -0.1230 -0.3826 -0.0992
27036W        W30634  16.078   7.742  13.702 -0.0061  0.3761  0.1997
27037W        W30635   7.330  12.000   5.467 -0.2763 -0.0280  0.2526
27038W        W30636  11.323   7.180   6.136 -0.2173  0.0372 -0.0690
27039W        W30637  14.654  15.946   0.945 -0.3249 -0.2130  0.1150
27040W        W30638  13.582   5.766   7.919 -0.0449 -0.2410  0.1813
27041W        W30639  11.556   0.562  11.053  0.2493 -0.0237 -0.0197
27042W        W30640   0.978   9.933  14.850 -0.1199 -0.0537 -0.1428
27043W        W30641   7.082  12.017  12.201 -0.1969 -0.1787 -0.1150
27044W        W30642   4.233  15.085  10.395 -0.0564  0.1907 -0.0733
27045W        W30643  15.214   3.224   5.349 -0.2396  0.0100 -0.0551
27046W        W30644   8.834  14.492   6.222  0.1271 -0.0182 -0.0665
27047W        W30645   7.256  10.806   2.540 -0.1048  0.0472 -0.0560
27048W        W30646   7.835   9.160   4.418 -0.0863  0.1929  0.0028
27049W        W30647  13.189  12.283  16.391 -0.1219 -0.0602  0.1086
27050W        W30648   4.786   1.788   4.112  0.1384 -0.1682 -0.2744
27051W        W30649   3.162   0.892  13.232 -0.0211 -0.2654  0.1150
27052W        W30650   1.367   7.578   0.575 -0.1325  0.4158 -0.1074
27053W        W30651  12.293   3.827  15.180 -0.0942  0.4444  0.2356
27054W        W30652   1.938  12.858   0.310  0.2680  0.1543  0.2040
27055W        W30653   8.001   8.455   8.023 -0.0034 -0.1779  0.0905
27056W        W30654  15.104   1.653   8.308 -0.1742 -0.0423 -0.3026
27057W        W30655   1.978  12.534   0.697  0.0011 -0.0942 -0.1904
27058W        W30656  14.107   5.113  14.652 -0.2282 -0.2521  0.0493
27059W        W30657  13.498   9.155   5.575  0.1072  0.0955  0.4679
27060W        W30658  12.505   4.448   4.340  0.2384 -0.0636 -0.1295
27061W        W30659   6.883   1.290   0.205  0.2957 -0.2063 -0.0537
27062W        W30660   4.309  13.027  11.675  0.0328 -0.1639 -0.1037
27063W        W30661   8.472  11.798   2.582  0.3860  0.0002  0.4113
27064W        W30662  15.393   7.954   6.676 -0.1530  0.0732  0.2829
27065W        W30663   2.338   2.185   2.041 -0.2210  0.4120 -0.0146
27066W        W30664   1.846   7.878   1.162  0.0325 -0.1358 -0.1989
27067W        W30665  13.356   7.010   7.789  0.0059  0.0261 -0.0603
27068W        W30666  10.119   3.241  11.036  0.0777  0.5382 -0.2363
27069W        W30667   8.422   1.422   8.106 -0.1169 -0.3956  0.0998
27070W        W30668   1.411   8.847  10.671 -0.1830  0.1784 -0.3650
27071W        W30669   2.130  12.535   2.996  0.1118  0.0744 -0.0429
27072W        W30670  11.319   8.006  11.093  0.0588  0.0174 -0.0179
27073W        W30671  14.982   2.497  15.899 -0.1392  0.1250 -0.3485
27074W        W30672  14.943   4.261  10.968 -0.2418 -0.3116 -0.0558
27075W        W30673   9.559  14.641  14.629  0.2067 -0.3019 -0.1571
27076W        W30674   2.164   0.639   7.996  0.0586 -0.0124 -0.1029
27077W        W30675  16.342  10.191  13.344 -0.2194  0.0374  0.3323
27078W        W30676  11.721   2.392   7.620 -0.0392  0.0726 -0.2576
27079W        W30677  14.915  13.019  13.555 -0.0396  0.1448  0.2453
27080W        W30678  14.230   8.774   1.112  0.0520  0.0064 -0.3154
27081W        W30679   5.468  16.269   6.285 -0.0593  0.0155  0.2522
27082W        W30680   2.339   2.948   4.114  0.0699  0.3957  0.1518
27083W        W30681   4.254  11.782  16.012  0.1220 -0.2618 -0.2804
27084W        W30682  14.203  11.795  15.592 -0.0192 -0.0116 -0.3166
27085W        W30683  14.672  12.422   9.040  0.1220  0.0116  0.0176
27086W        W30684   4.251  10.855   4.274 -0.1047  0.1338 -0.1974
27087W        W30685   7.973   7.902   7.217 -0.0516 -0.0034  0.0273
27088W        W30686   8.246   8.349   1.786  0.0470 -0.2289 -0.0300
27089W        W30687   4.607   0.478  13.690 -0.3108  0.3439  0.2833
27090W        W30688   5.690  14.964   6.518  0.2346 -0.1737  0.0798
27091W        W30689   2.917  11.687   2.625  0.0122  0.3650 -0.3647
27092W        W30690   7.178   0.172  13.500  0.1337  0.2203  0.0870
27093W        W30691   8.228   3.747   8.388  0.2007 -0.0387 -0.1097
27094W        W30692   7.963   4.655  11.335 -0.0981  0.0652 -0.3743
27095W        W30693   3.496   3.562   4.456 -0.0533  0.1494 -0.1104
27096W        W30694   3.912   6.273  14.465  0.1989  0.1491 -0.0036
27097W        W30695  15.808   5.001  13.396  0.1350  0.1982 -0.0425
27098W        W30696  14.941   9.874   9.769  0.3076 -0.1916 -0.1614
27099W        W30697  16.003   1.535   0.333 -0.1085  0.1705 -0.0499
27100W        W30698   5.160   3.764  11.576  0.1486  0.2529  0.0084
27101W        W30699   5.727   6.452  10.746 -0.1598  0.0560 -0.0419
27102W        W30700   4.341  14.005  15.125 -0.0130 -0.0223  0.2277
27103W        W30701   0.117   8.151   6.710  0.2443  0.1623 -0.1150
27104W        W30702  12.036   5.335   0.934  0.3658  0.0118  0.1068
27105W        W30703   3.445   2.843   4.613  0.2605 -0.1893  0.0150
27106W        W30704  12.141  12.448  12.241 -0.2657  0.0149  0.2202
27107W        W30705   4.956   2.731   9.206 -0.2499  0.0313 -0.2042
27108W        W30706   6.510   4.716   9.664 -0.0997  0.1201  0.0321
27109W        W30707   2.832  10.779   9.906 -0.0916  0.1384 -0.0244
27110W        W30708  10.399  11.933   8.146 -0.4792  0.1442 -0.2099
27111W        W30709  14.636   5.948  10.461 -0.0038  0.1878  0.0893
27112W        W30710   9.639   2.522   5.226 -0.0864  0.0267  0.0096
27113W        W30711  14.922   3.654  11.689 -0.0741  0.0207 -0.1256
27114W        W30712   8.926   4.730   1.537 -0.1161  0.0566  0.1562
27115W        W30713   6.448   0.610  13.946  0.0496  0.1799  0.2311
27116W        W30714   9.270   9.592  11.303  0.2810  0.5100 -0.3122
27117W        W30715  11.904   6.051   8.684 -0.1060  0.3010 -0.0918
27118W        W30716  10.948   3.168   1.593  0.3303 -0.0525  0.0481
27119W        W30717  12.539  11.512   4.795  0.0381  0.1342  0.2400
27120W        W30718   6.029   6.750   2.570 -0.0714 -0.5037 -0.1955
27121W        W30719   9.480   7.247   9.241 -0.3067 -0.1028  0.2725
27122W        W30720  13.700  10.945   4.851 -0.0513  0.0393 -0.0510
27123W        W30721  11.706   9.093   4.362 -0.0796 -0.0524  0.1654
27124W        W30722  13.032   9.187   3.344  0.0142 -0.1997  0.1228
27125W        W30723   6.714  10.035   1.098 -0.0891 -0.0575 -0.3961
27126W        W30724   3.822   2.244   0.266  0.2604  0.3494 -0.2029
27127W        W30725   3.158   6.031  11.950  0.1227  0.1478  0.1945
27128W        W30726   9.596   5.836  11.129 -0.0443 -0.1089 -0.1106
27129W        W30727  13.257   6.398   3.048  0.2074  0.1145 -0.0258
27130W        W30728  12.922   8.537   5.031 -0.1940  0.1972  0.0178
27131W        W30729  14.406  11.594  14.892  0.2235  0.1663  0.3813
27132W        W30730  15.012  14.735   4.127 -0.2374 -0.0606 -0.3002
27133W        W30731   3.275  12.628  13.208  0.0352 -0.3002  0.0625
27134W        W30732  10.240   7.541  13.444  0.3642  0.0387  0.0977
27135W        W30733  10.683   6.054   7.105 -0.1339  0.2257 -0.0504
27136W        W30734  15.941  14.720   5.750  0.3135 -0.1044 -0.1235
27137W        W30735   9.221  13.453   1.686  0.4742  0.0782  0.3086
27138W        W30736   3.878   3.325   7.554 -0.0745  0.1193  0.3073
27139W        W30737   4.990   3.570   8.704 -0.3859  0.2641  0.2479
27140W        W30738  11.930   3.995   3.822  0.2667 -0.5352 -0.3240
27141W        W30739   4.247  12.957   4.063  0.0055  0.0155 -0.4697
27142W        W30740  12.824   5.417   4.566 -0.0212 -0.4060 -0.1567
27143W        W30741   6.921  14.573   7.032 -0.0891 -0.0970  0.1865
27144W        W30742  12.151   0.129   6.079 -0.1021 -0.0335 -0.0942
27145W        W30743   1.868   9.953  11.096 -0.4103  0.1272  0.0376
27146W        W30744  10.738  14.156   5.929  0.1639 -0.0430  0.1401
27147W        W30745   4.335  10.647  12.298 -0.0601  0.0948  0.1283
27148W        W30746   0.327  13.025   5.959 -0.0864 -0.1682 -0.1998
27149W        W30747  11.647   2.849   0.800  0.4701 -0.0520  0.3979
27150W        W30748  11.601   4.771   8.069  0.1918 -0.0012  0.1792
27151W        W30749  14.511   7.707   3.700  0.1061 -0.1087 -0.2007
27152W        W30750   1.701   4.961   7.315 -0.0810  0.2887  0.1165
27153W        W30751   2.395   6.704  16.339 -0.1080 -0.1616 -0.0373
27154W        W30752   6.446   5.537   2.904  0.1014  0.0953  0.2168
27155W        W30753   0.971   3.459   0.230  0.2350  0.1875  0.0654
27156W        W30754   3.008  11.005   5.546 -0.0456  0.0135  0.2524
27157W        W30755   9.100  11.851   7.539  0.2424 -0.0880  0.1824
27158W        W30756  12.719   7.166  11.775 -0.3548  0.0267 -0.0350
27159W        W30757  14.449  15.479   7.912 -0.2287  0.0865 -0.0328
27160W        W30758   5.672  16.112  14.081 -0.1362  0.1997  0.1177
27161W        W30759   6.206   1.973   7.171  0.1173  0.2560 -0.0022
27162W        W30760  16.244  11.147   4.191 -0.0561 -0.1058 -0.0221
27163W        W30761   1.603   8.590  14.428 -0.0472  0.1568 -0.0016
27164W        W30762   3.743   4.079  10.727 -0.2358 -0.4192  0.2827
27165W        W30763  14.395  11.076   3.201  0.4373  0.3187  0.2128
27166W        W30764  15.425   1.207   1.774  0.0663 -0.1793  0.1082
27167W        W30765   5.781   6.836  10.239 -0.0031 -0.0152  0.2676
27168W        W30766   4.290  15.184   4.143  0.4901  0.0653 -0.3156
27169W        W30767  15.147   6.704   5.184 -0.0012 -0.3932  0.0673
27170W        W30768   7.071   5.608   3.052  0.1751 -0.1271 -0.0079
27171W        W30769   4.765   2.506   2.313 -0.0483 -0.0551  0.0087
27172W        W30770   4.815   8.664   5.833  0.4176  0.2026  0.0893
27173W        W30771   5.260   9.248  13.547  0.1113  0.0888  0.1386
27174W        W30772   6.819  10.556   2.431 -0.2902 -0.0284 -0.1104
27175W        W30773  12.197  12.595  10.494 -0.1802 -0.2977  0.1172
27176W        W30774  11.295   8.956   6.014 -0.0314  0.1720  0.1901
27177W        W30775  15.314   7.551   9.304 -0.1620 -0.0799  0.3686
27178W        W30776   3.945   9.115  14.069 -0.0827 -0.1083  0.0154
27179W        W30777  14.202   2.876  11.853  0.2001  0.0072 -0.1820
27180W        W30778  15.250  10.980   0.159 -0.2992  0.0228  0.2779
27181W        W30779   8.538   2.686   6.114  0.0159  0.1602 -0.0173
27182W        W30780  15.333   6.180   6.472  0.1948  0.1050 -0.2443
27183W        W30781  14.592  15.537   1.752 -0.0016  0.1840  0.2228
27184W        W30782   8.951  10.925   6.704  0.1852  0.0742  0.0580
27185W        W30783  14.049   2.370  11.485 -0.2429 -0.2710 -0.1875
27186W        W30784  15.289   9.010   0.697 -0.2110  0.1238  0.0823
27187W        W30785   7.864  15.517   6.719  0.1553 -0.0687  0.1418
27188W        W30786   5.709   2.849   1.718  0.4013  0.1257  0.1020
27189W        W30787  13.426  15.279   9.339  0.0797 -0.0688  0.2434
27190W        W30788   5.931  16.173   4.294  0.4178 -0.0256  0.0690
27191W        W30789  11.953   7.428   9.151  0.0528 -0.2060 -0.0870
27192W        W30790  15.432  11.754   7.311  0.3398  0.0690  0.0676
27193W        W30791  12.986   2.811  13.587  0.0057  0.0674  0.0354
27194W        W30792  11.219   4.415  15.505 -0.2856  0.0576  0.2972
27195W        W30793  11.314   5.210  11.506 -0.1100 -0.1771  0.1016
27196W        W30794  12.717  15.954   5.087  0.2561 -0.2301  0.1673
27197W        W30795  15.190   5.576   2.219  0.1549 -0.0155 -0.2616
27198W        W30796   8.407   8.094   8.134  0.0980 -0.0417  0.3265
27199W        W30797   1.291  12.830  13.054  0.0496  0.1196 -0.1689
27200W        W30798  13.059  14.268  11.018  0.1692  0.2610 -0.0441
27201W        W30799   0.574  12.120  14.534 -0.2036  0.1593  0.0362
27202W        W30800  10.158   5.836   3.608 -0.2592 -0.1007  0.1446
27203W        W30801  10.558   5.991  15.925 -0.1178 -0.3231  0.2142
27204W        W30802   5.366   4.185  14.437 -0.1493  0.1324  0.5380
27205W        W30803   7.941   3.587   3.972 -0.1297 -0.2391  0.0325
27206W        W30804  13.383   3.823  10.511  0.2236 -0.2846  0.0415
27207W        W30805  13.820   7.758  12.265 -0.1034 -0.1123 -0.0044
27208W        W30806  10.553   8.552  11.399 -0.2151  0.2088 -0.0582
27209W        W30807   0.961  10.290  11.456  0.1785  0.4393  0.1195
27210W        W30808   5.251  12.223  10.769 -0.0397  0.1555  0.0686
27211W        W30809  10.623   9.275  11.314  0.0588  0.3386  0.0397
27212W        W30810   5.875   5.572   6.292 -0.1063 -0.0194  0.0459
27213W        W30811  11.314  14.850  14.218  0.1193 -0.1596 -0.0715
27214W        W30812   4.070   9.863  13.061 -0.1969 -0.0795  0.0745
27215W        W30813  13.083  14.006  16.281 -0.1402  0.0546  0.1026
27216W        W30814   2.399  13.681  13.666  0.0653  0.1526 -0.0001
27217W        W30815   2.669   9.977   3.142 -0.0929 -0.3896 -0.3567
27218W        W30816   7.279   4.567   8.088 -0.0218 -0.0479 -0.1504
27219W        W30817   0.186   8.442   5.451  0.1809 -0.1494  0.0804
27220W        W30818  14.536   3.423   6.797 -0.0723 -0.3982  0.2015
27221W        W30819   6.197   8.149   3.572  0.0549 -0.0000 -0.1996
27222W        W30820   3.645   5.112   5.008  0.2524 -0.0388  0.3174
27223W        W30821   8.260  13.954  15.653  0.3717 -0.0588 -0.0699
27224W        W30822  13.338   9.207   5.044  0.1213 -0.0061 -0.0169
27225W        W30823   2.805   5.532   6.579  0.0345 -0.0017  0.1907
27226W        W30824   8.642   6.702   8.396 -0.0243  0.0723  0.0697
27227W        W30825  11.817   1.686   4.027  0.0265  0.1781 -0.0596
27228W        W30826  14.834   9.128   0.824 -0.3649 -0.1525 -0.4517
27229W        W30827  13.594  16.216  15.408 -0.2050  0.3202 -0.2216
27230W        W30828   0.017   2.363  14.794 -0.0789 -0.0148  0.2914
27231W        W30829   9.956  16.189  11.110 -0.3281 -0.0356 -0.1631
27232W        W30830   6.079  13.970  12.937 -0.0364  0.3292 -0.2203
27233W        W30831   2.816   5.334  14.472  0.1592  0.3131 -0.0241
27234W        W30832  10.727   6.409   4.007  0.1094 -0.0527 -0.0386
27235W        W30833   4.485  11.582   9.241 -0.2923 -0.1379  0.3704
27236W        W30834   6.317   8.031  14.703 -0.1474  0.0596  0.1031
27237W        W30835  14.936  10.630  12.378  0.0753 -0.1247 -0.2903
27238W        W30836  14.025   3.637  12.490  0.1421 -0.1490 -0.0728
27239W        W30837  10.455   8.474   4.143 -0.0780  0.1893 -0.1794
27240W        W30838  15.463   6.851  15.085 -0.0077  0.1483 -0.4137
27241W        W30839   4.763   2.823  14.600  0.1824  0.0239  0.0223
27242W        W30840  11.302   6.019  12.773  0.1893  0.2498  0.1222
27243W        W30841  11.705   0.047  15.433  0.2129 -0.0654 -0.0640
27244W        W30842  10.299   0.359  11.848 -0.0623 -0.1288 -0.0691
27245W        W30843  15.846  14.793   6.945 -0.1306  0.0931 -0.0342
27246W        W30844  12.828  14.423  11.441  0.1330 -0.0541  0.0088
27247W        W30845   3.506   5.496   5.339 -0.1332 -0.0974  0.1905
27248W        W30846  11.834   1.376  11.661 -0.2670 -0.1839 -0.1438
27249W        W30847   7.753  15.338   2.142  0.2895 -0.1735  0.0700
27250W        W30848  11.464   1.863   2.865  0.2994  0.2167 -0.0629
27251W        W30849  10.704   4.615  15.480 -0.1033  0.0534  0.0976
27252W        W30850   6.025   4.851  12.708  0.0226 -0.0499  0.0397
27253W        W30851   1.980  14.655   5.370  0.0764 -0.1024 -0.1825
27254W        W30852   4.411  12.303  11.647  0.1413 -0.0008  0.2552
27255W        W30853  13.116  11.325  10.070 -0.1773 -0.1550  0.0605
27256W        W30854  10.471   5.625   2.249 -0.0404 -0.3050  0.0817
27257W        W30855  10.785   1.285   7.156 -0.3217 -0.1020  0.0528
27258W        W30856  15.088   0.148   9.525  0.0832  0.1506  0.0634
27259W        W30857   1.882   4.897   6.662  0.0889 -0.1619 -0.1462
27260W        W30858   7.244  16.217  10.553 -0.1986 -0.0553 -0.0421
27261W        W30859   1.737  11.780   3.370  0.1398  0.2795  0.1213
27262W        W30860   0.262   8.683  10.317 -0.0813  0.0582  0.2350
27263W        W30861  13.645   8.198   8.723  0.0274 -0.2319 -0.2186
27264W        W30862   1.692   0.089   0.713  0.0706 -0.2636  0.0682
27265W        W30863   9.585  12.374   5.340 -0.0056  0.0920 -0.0823
27266W        W30864   6.269   4.138  13.176  0.3258 -0.6040 -0.0210
27267W        W30865  13.379  14.287   1.004 -0.2136 -0.2254  0.3389
27268W        W30866  12.964   7.545  13.570  0.1672 -0.2336 -0.2093
27269W        W30867   9.568  11.707   2.521  0.0086 -0.4514  0.2888
27270W        W30868  12.248  14.568   7.813  0.2899 -0.0881 -0.1554
27271W        W30869   5.040   2.038   4.528  0.0528  0.0294  0.1384
27272W        W30870  15.468   9.287   9.036 -0.3089 -0.0931  0.1593
27273W        W30871   1.119   2.413   1.689 -0.2448 -0.0005 -0.1305
27274W        W30872   4.296   8.850  15.075 -0.2202 -0.1858  0.1402
27275W        W30873  12.249  10.819  11.194 -0.2710  0.1408  0.4426
27276W        W30874   5.219   5.468   1.857  0.1402 -0.0494 -0.2430
27277W        W30875   5.271  11.700   1.850  0.3543  0.2394  0.0039
27278W        W30876  15.778   9.530   2.338 -0.1838  0.1703 -0.2390
27279W        W30877   4.748  10.209   3.392 -0.0156 -0.0141 -0.2198
27280W        W30878   5.766   6.922   4.802 -0.0815  0.0608 -0.1707
27281W        W30879   4.321   3.981  16.028 -0.2278  0.0138 -0.1117
27282W        W30880  11.260   9.679   3.486  0.0851 -0.3492 -0.0161
27283W        W30881   9.821  10.626   7.238 -0.2245  0.1851  0.0243
27284W        W30882   8.866   1.598   2.290  0.0747  0.2015  0.0555
27285W        W30883  11.535   3.614   1.309  0.0302 -0.3137  0.0374
27286W        W30884   8.227   7.675   9.711 -0.0489 -0.0831  0.0343
27287W        W30885  12.348  13.063   3.564  0.2355 -0.3770 -0.1720
27288W        W30886  14.473  10.383   8.000 -0.2134 -0.0482  0.2821
27289W        W30887   2.478  12.768   2.624  0.2285 -0.2062  0.0320
27290W        W30888  11.719  15.021  12.925 -0.3360  0.1037  0.1111
27291W        W30889  11.294   3.865  16.065 -0.0013  0.0152  0.0739
27292W        W30890   5.917   2.440  15.320 -0.0506  0.3071 -0.0246
27293W        W30891   4.159  15.756   4.933  0.0500  0.0038 -0.0311
27294W        W30892   8.657   0.162   6.356 -0.1950 -0.1362 -0.0323
27295W        W30893   8.503   7.922  13.636 -0.2382  0.1024 -0.1009
27296W        W30894   4.205  15.694   8.340  0.4251 -0.4962  0.2153
27297W        W30895  15.232   7.149   7.240 -0.0415 -0.0167 -0.1975
27298W        W30896   7.127  12.907   2.752 -0.0783 -0.0634 -0.0379
27299W        W30897  15.077  10.908   7.067 -0.0074  0.1390 -0.3637
27300W        W30898   1.393   8.468  14.946 -0.3933  0.2238 -0.0483
27301W        W30899   6.350   6.965   6.264  0.2428 -0.2002 -0.1380
27302W        W30900   7.569  11.929   0.224 -0.0289  0.0032  0.1915
27303W        W30901   6.247   9.640   4.556  0.1856  0.2243 -0.0143
27304W        W30902   8.121   2.768  11.369  0.4016  0.3057 -0.1872
27305W        W30903   9.010  14.978   2.751  0.0779  0.2586  0.0124
27306W        W30904   0.487   3.295   9.684  0.2054  0.0492 -0.1346
27307W        W30905  13.468  12.613   1.799  0.0011  0.1649 -0.1135
27308W        W30906  13.161   3.229   4.224 -0.0870  0.0894  0.4876
27309W        W30907   8.739   8.602   3.242 -0.0411  0.0856  0.0197
27310W        W30908   4.894   8.019   4.196 -0.1667 -0.0676  0.2274
27311W        W30909  12.178   4.337  10.266 -0.2870 -0.0153  0.1200
27312W        W30910   7.603   2.049  12.855  0.0454 -0.3847  0.1505
27313W        W30911  15.309   7.126  12.217  0.3225 -0.5161  0.0532
27314W        W30912   6.715   0.761  10.051  0.0516 -0.0562 -0.0687
27315W        W30913  11.352   7.846  15.604 -0.0674  0.2985 -0.0455
27316W        W30914   0.910   8.852   5.652  0.0743 -0.0743  0.0385
27317W        W30915  10.871   3.231  15.847  0.0538  0.1134  0.0320
27318W        W30916  13.126   7.706   4.766 -0.0908  0.0953  0.3614
27319W        W30917   9.887   0.525  11.636 -0.0165 -0.1881  0.0835
27320W        W30918   5.781   7.328   5.210 -0.3450  0.1905  0.2813
27321W        W30919   9.992   5.427   5.137 -0.0134  0.2968  0.1182
27322W        W30920  14.413   1.137  13.277  0.0764 -0.0319 -0.1460
27323W        W30921  12.991  11.541   0.123  0.1837 -0.2733  0.0527
27324W        W30922  14.434   3.116  10.960  0.0315  0.0952  0.1149
27325W        W30923   5.392   5.208   7.123 -0.3616  0.0285  0.1398
27326W        W30924  11.139   5.895   7.021  0.0074  0.0365  0.3631
27327W        W30925  12.220   6.310  14.298  0.0471 -0.4554 -0.0451
27328W        W30926   2.545  16.112  10.613 -0.0457 -0.0327  0.2240
27329W        W30927   5.248   9.983   7.253  0.1320 -0.0612  0.1801
27330W        W30928  13.664  14.836   2.591 -0.2550 -0.1832 -0.0246
27331W        W30929  12.576   3.080  12.446 -0.2051 -0.0519 -0.0583
27332W        W30930   5.143  11.975   4.538  0.0939  0.1879 -0.3791
27333W        W30931  16.119  12.615   5.261  0.0177 -0.1617  0.0944
27334W        W30932   8.099  12.590  10.975  0.4310  0.2228  0.0773
27335W        W30933   0.221   2.182   2.076  0.3075  0.1467 -0.1180
27336W        W30934   0.969   4.369  10.693 -0.1219  0.2420 -0.1647
27337W        W30935   2.108   0.928  16.070  0.0921  0.0026 -0.3600
27338W        W30936   1.665  10.254   6.865 -0.3168 -0.0911 -0.2457
27339W        W30937   1.618   4.508  11.401  0.0317  0.0184  0.0188
27340W        W30938   5.186   0.534  14.654  0.1519  0.1440 -0.3952
27341W        W30939   4.201   2.592   0.958  0.1609 -0.0002  0.1312
27342W        W30940   1.402  13.705  13.271  0.2562 -0.0271  0.2851
27343W        W30941   2.833  15.307  15.344 -0.2103  0.2353 -0.0166
27344W        W30942  12.473  13.354   0.095  0.0516  0.2669 -0.1802
27345W        W30943   9.928   0.914   5.878  0.3442 -0.2539 -0.0460
27346W        W30944   6.524   7.774  11.787  0.1960  0.0051  0.0126
27347W        W30945  15.345   2.079   0.702 -0.0560  0.0386  0.0819
27348W        W30946  14.582  14.064  16.310 -0.2549 -0.2372  0.0584
27349W        W30947  15.813  15.838   8.744 -0.0413  0.0060 -0.1013
27350W        W30948   7.020   5.431   6.745  0.2111 -0.0026  0.3277
27351W        W30949   4.128  11.936   7.884  0.0730  0.2724  0.0079
27352W        W30950   4.813   5.843  13.658  0.2100  0.1862  0.0522
27353W        W30951   1.505   5.283  15.794  0.1315  0.0587 -0.2132
27354W        W30952   6.654   7.416   2.558 -0.0713  0.3239 -0.0875
27355W        W30953   4.082  16.000  14.161 -0.0969  0.0744 -0.1997
27356W        W30954  15.379   5.157   9.808 -0.0347  0.1513  0.2850
27357W        W30955  15.781   5.305   7.581  0.1582 -0.0351  0.0296
27358W        W30956  15.915   9.482  13.736 -0.0806 -0.3527  0.0695
27359W        W30957  16.186   8.891   7.870 -0.1491 -0.0070 -0.0608
27360W        W30958  16.380   6.813   3.441 -0.2575  0.2380  0.2444
27361W        W30959   8.707   4.371   9.532  0.0935  0.2633  0.6360
27362W        W30960   2.658  14.977   2.245 -0.0407 -0.3236  0.2256
27363W        W30961   9.329  11.849   4.913 -0.0568 -0.0041  0.0210
27364W        W30962   1.845  13.763   7.701 -0.1307  0.0058  0.2534
27365W        W30963  15.189   4.498   8.768 -0.0295 -0.1183 -0.1609
27366W        W30964   3.026   2.162  13.677 -0.4567  0.0387 -0.2056
27367W        W30965  10.390   5.540  12.733  0.1023 -0.1357 -0.0582
27368W        W30966  11.878   7.047   4.246 -0.0921  0.1064  0.2113
27369W        W30967  12.236  14.185   3.883 -0.0257 -0.0181  0.1350
27370W        W30968  10.434  15.976  15.144 -0.1775  0.0658  0.1276
27371W        W30969  11.492  15.235   3.918  0.2650 -0.1053  0.1684
27372W        W30970  14.442  16.295  12.376  0.0860 -0.3032 -0.3631
27373W        W30971   2.295   6.292   6.370 -0.3515 -0.2128  0.2018
27374W        W30972   3.511  13.182  14.270 -0.0037  0.0944  0.3181
27375W        W30973   8.119   9.347  12.396 -0.2645 -0.1329  0.0502
27376W        W30974   9.250  14.480   4.502 -0.1371 -0.2998  0.0773
27377W        W30975  14.385  11.929   0.363 -0.1376 -0.0872 -0.0811
27378W        W30976   6.212  13.000   2.883  0.1516  0.0527 -0.3320
27379W        W30977  10.713  14.233  15.868  0.1737 -0.2303 -0.0642
27380W        W30978  14.105   1.344   8.298  0.1015 -0.1759 -0.0034
27381W        W30979  10.477  11.342   1.454 -0.1379 -0.0438 -0.1930
27382W        W30980   5.627  11.309   1.871  0.3225  0.1040 -0.4064
27383W        W30981   3.827   1.397  12.230  0.0268  0.1953  0.0666
27384W        W30982  12.358   6.532   5.897  0.0472 -0.0850 -0.0475
27385W        W30983   2.725  14.306   7.511  0.0280  0.1296 -0.0314
27386W        W30984   7.505  11.357  16.199  0.0067  0.2240  0.1798
27387W        W30985   5.611   7.835  11.718  0.0792 -0.1852 -0.0491
27388W        W30986   9.878   3.997  12.429  0.1399 -0.1233  0.0410
27389W        W30987  11.078   8.265   7.605  0.1916  0.1511  0.2874
27390W        W30988   2.754   0.333  12.108  0.0323  0.0410 -0.1852
27391W        W30989  10.979   9.231  13.306  0.2554  0.3717 -0.2504
27392W        W30990  14.540  10.545   4.918 -0.1710 -0.0430 -0.2334
27393W        W30991   2.861  13.150   0.085 -0.1062  0.0742  0.0367
27394W        W30992  13.876   7.060   4.659 -0.0222  0.2277 -0.0542
27395W        W30993  14.766  11.714  15.785 -0.0555  0.2367  0.1816
27396W        W30994   6.006  13.829   3.379 -0.2413 -0.2798 -0.2610
27397W        W30995  13.180   5.237  10.360  0.2233 -0.1805 -0.0050
27398W        W30996   8.077  13.046   2.327  0.2829 -0.1907  0.3461
27399W        W30997   6.251  12.006   4.489 -0.0293 -0.1665 -0.0330
27400W        W30998   6.817   9.441   2.414  0.1471 -0.4252  0.4518
27401W        W30999   7.219   1.456  16.303 -0.1321  0.0403 -0.0163
27402W        W31000  13.966  11.914   2.764  0.0460 -0.1186  0.1982
27403W        W31001   8.910   6.825  14.478  0.0373 -0.1211 -0.2782
27404W        W31002   1.697   7.685  12.551 -0.2439  0.0078 -0.0295
27405W        W31003   5.856   4.371   4.167 -0.2301 -0.0042 -0.0313
27406W        W31004   4.450   8.505  12.175  0.0975 -0.0730  0.3983
27407W        W31005  11.687   4.937   5.458  0.3512  0.1011  0.4405
27408W        W31006   5.508   5.649   7.286 -0.1098 -0.4195 -0.3518
27409W        W31007  15.388   9.928   7.246 -0.3681 -0.0337  0.2814
27410W        W31008  14.788  15.536   7.164  0.1904 -0.1552  0.3242
27411W        W31009   4.813  12.247  11.368 -0.0639  0.0645  0.1707
27412W        W31010   2.531   6.998   2.095  0.0386 -0.0375 -0.0623
27413W        W31011  11.417   5.971   8.726 -0.0861  0.1101  0.1026
27414W        W31012   0.974   0.255   3.125  0.0165  0.2733 -0.0986
27415W        W31013   4.660   7.875   7.740  0.1942  0.4399  0.0578
27416W        W31014  14.688   6.932   5.245 -0.0535  0.0738 -0.3105
27417W        W31015   0.574   3.948  11.387 -0.1028  0.2076  0.1508
27418W        W31016   7.893  12.340  10.579 -0.0993  0.0309  0.1480
27419W        W31017   0.138  12.232   0.551 -0.1396 -0.2182  0.0905
27420W        W31018  11.889  16.271   5.330  0.1460 -0.1107 -0.0826
27421W        W31019   5.395   3.670   3.711  0.1876 -0.0323 -0.3404
27422W        W31020  14.893  13.395   1.861 -0.1501 -0.2929 -0.0501
27423W        W31021   8.363   7.624   1.245  0.2222 -0.1193 -0.2692
27424W        W31022   8.881   5.437   5.686  0.0382  0.1645 -0.0141
27425W        W31023   0.533   4.971  16.155  0.1236  0.0648 -0.2174
27426W        W31024   5.800   2.984  11.240 -0.1800 -0.2581 -0.0484
27427W        W31025   7.390   9.132   3.240  0.0685  0.0149  0.0323
27428W        W31026  15.458  16.157  15.127 -0.1962  0.1226  0.3292
27429W        W31027   7.664  14.966   2.923  0.0413 -0.3019  0.1538
27430W        W31028   5.437  14.737  12.729  0.0026  0.1015 -0.1289
27431W        W31029   4.342   7.900  11.146 -0.1018 -0.0803  0.1157
27432W        W31030   4.034   7.856  11.679 -0.5799  0.1790  0.1311
27433W        W31031   0.721   4.197  15.318 -0.1323  0.1288  0.0157
27434W        W31032  16.126  16.227   0.613  0.2238 -0.1324 -0.0967
27435W        W31033   3.405   5.523   4.398 -0.4478 -0.1553 -0.1959
27436W        W31034   6.342   5.009  10.217 -0.2616  0.2605 -0.2862
27437W        W31035  11.552  12.918   3.006 -0.1305  0.0311 -0.0034
27438W        W31036   5.043   0.655   9.254 -0.1655  0.2608  0.2592
27439W        W31037  10.385  13.676   5.388 -0.3781 -0.0963 -0.2239
27440W        W31038   1.754   6.527  14.152 -0.0813 -0.0612 -0.2426
27441W        W31039   9.792   7.572  11.404 -0.1137 -0.1889 -0.2023
27442W        W31040   9.073   5.436  15.004 -0.4566 -0.0260  0.3212
27443W        W31041   7.849   2.631   6.879 -0.0326  0.0289 -0.0149
27444W        W31042   5.135   0.643   5.728 -0.0948 -0.0390 -0.2985
27445W        W31043   9.810   0.170   8.648  0.1084 -0.2586 -0.1050
27446W        W31044   5.471   3.636  12.489 -0.0419  0.0322 -0.0075
27447W        W31045   4.455  16.345   6.215 -0.1379 -0.0033  0.0084
27448W        W31046   6.670   7.939  12.488  0.2658  0.0599 -0.1215
27449W        W31047   3.231  16.324   7.300  0.1565  0.3169 -0.0944
27450W        W31048   6.002  11.747  11.224  0.2427 -0.0390 -0.1697
27451W        W31049  11.919  10.629  13.276 -0.0563  0.0669 -0.0044
27452W        W31050   4.923   5.595  10.198  0.3635  0.0471  0.1457
27453W        W31051   1.410  12.606   4.549 -0.0891  0.2453  0.2502
27454W        W31052   3.996  10.175   7.104  0.1723 -0.0435  0.1312
27455W        W31053   1.702  14.417  13.343  0.2444 -0.1340 -0.0339
27456W        W31054   3.148  10.902   6.149  0.0695 -0.1649 -0.2460
27457W        W31055  10.508   7.154   2.345  0.0737 -0.0366 -0.1328
27458W        W31056   1.169   1.986   2.951 -0.2030 -0.0821 -0.3352
27459W        W31057   3.659   2.106   1.991 -0.2622  0.0438  0.0164
27460W        W31058   4.737   1.792  13.693 -0.0083  0.3746 -0.1350
27461W        W31059   3.076   6.576  15.148 -0.2837 -0.0130  0.0825
27462W        W31060   1.422  14.426  11.831  0.0316  0.1033  0.0851
27463W        W31061  16.012  11.895   8.460 -0.0340  0.2565  0.1179
27464W        W31062  15.929   3.075  15.389  0.0036  0.0749 -0.1693
27465W        W31063   1.730  12.811   7.739 -0.1550  0.1217 -0.1228
27466W        W31064  12.432  11.772   6.835 -0.0234  0.0681  0.0108
27467W        W31065  13.668   8.463   3.164  0.0728 -0.1227  0.0926
27468W        W31066   8.595   4.532   1.176 -0.0736 -0.0685  0.1928
27469W        W31067  16.281  12.713   0.623  0.0318  0.0172 -0.0734
27470W        W31068  12.287  14.897   5.441  0.1141  0.4672 -0.0254
27471W        W31069   1.130   9.231  10.549 -0.1905 -0.0860 -0.0856
27472W        W31070  14.457  11.420   8.401 -0.0173 -0.1829  0.1556
27473W        W31071  16.240  12.477  14.927  0.0705 -0.0749 -0.0215
27474W        W31072  13.935  11.302   0.048 -0.3088  0.0064 -0.1294
27475W        W31073   8.275   9.787  16.332  0.0904 -0.1726  0.3595
27476W        W31074  11.455  13.360  15.031  0.1397  0.2536  0.3490
27477W        W31075   3.815  11.758   4.294 -0.2482 -0.2659 -0.2387
27478W        W31076  11.668   6.849   6.284 -0.2003  0.0672 -0.0077
27479W        W31077  10.630   0.271  10.209 -0.1513  0.1393 -0.4979
27480W        W31078  14.138  16.181   2.808 -0.1366  0.0858 -0.2529
27481W        W31079   1.080   3.902   0.596  0.1480  0.2510 -0.1763
27482W        W31080   7.989   7.412   2.923  0.0550  0.1368 -0.1747
27483W        W31081   6.135  10.884  15.895  0.3495 -0.2136  0.3567
27484W        W31082   0.920   0.219  10.677  0.1717  0.2176  0.1168
27485W        W31083   0.196   0.958   6.983  0.1260  0.2233  0.0324
27486W        W31084  13.525  13.849   1.712  0.5696  0.2581 -0.1583
27487W        W31085   7.483   6.367   0.459  0.0595  0.0401  0.0102
27488W        W31086   1.627   7.075  13.979 -0.3070 -0.3963 -0.1243
27489W        W31087   2.876   1.124   3.961  0.3059 -0.1977 -0.2886
27490W        W31088   3.857   2.790   4.848  0.6291 -0.1566 -0.1131
27491W        W31089  12.560   9.755  14.239 -0.1892 -0.1956 -0.1595
27492W        W31090   6.433   1.536  12.856 -0.2666  0.2516  0.1946
27493W        W31091   6.313  12.382  16.242  0.0464 -0.2324  0.1153
27494W        W31092  16.123   4.423   4.574 -0.0287 -0.0419  0.1945
27495W        W31093  15.513   1.311   8.439  0.0436 -0.0951  0.0790
27496W        W31094   1.671  11.297   9.317 -0.0288 -0.1850  0.2384
27497W        W31095   8.120   0.512   1.011 -0.2113  0.2367 -0.2232
27498W        W31096  10.049   3.470  13.224 -0.2581  0.2550 -0.0956
27499W        W31097   8.134  15.053  10.857  0.0217 -0.0116  0.1698
27500W        W31098   4.698  11.137  14.578  0.2669 -0.1407 -0.2723
27501W        W31099   0.834   1.830  12.261 -0.1027  0.0212  0.0406
27502W        W31100  10.940   8.831   3.500 -0.1391 -0.0360 -0.1346
27503W        W31101  13.424   3.462   6.329 -0.0595  0.1227 -0.2301
27504W        W31102   3.434  10.059  15.954  0.2864  0.1626  0.0250
27505W        W31103  13.124   7.810   3.532  0.2478 -0.1449 -0.2442
27506W        W31104   1.980   1.101   8.323 -0.1443 -0.1449 -0.0627
27507W        W31105  12.149  12.333   3.194 -0.1738 -0.1072  0.4449
27508W        W31106   6.031   4.909   9.732 -0.2680  0.1456 -0.0648
27509W        W31107   4.284   2.607   2.563  0.2019 -0.0489  0.3890
27510W        W31108   3.597   6.019   6.571  0.1300  0.0708 -0.0322
27511W        W31109  15.537  16.217   3.883  0.2514 -0.0063  0.1105
27512W        W31110  14.163   9.420   8.678  0.2283 -0.0937  0.0072
27513W        W31111  11.695  15.033  16.338  0.1249  0.1313 -0.0167
27514W        W31112   2.377   5.057   9.829  0.2179 -0.2566  0.0254
27515W        W31113   9.227  15.235   8.502  0.3463 -0.0806 -0.1080
27516W        W31114   1.359   4.995  10.740  0.1050 -0.0426  0.1377
27517W        W31115  10.246   5.898   5.776 -0.0882 -0.0825  0.1227
27518W        W31116   5.169  15.393   2.340 -0.2121 -0.0444  0.2087
27519W        W31117   6.463   3.266   9.392  0.1329 -0.0311 -0.1877
27520W        W31118   2.791  11.108  10.710 -0.2377  0.0543 -0.0906
27521W        W31119  11.502   1.868   1.967  0.0048 -0.3561 -0.1986
27522W        W31120  10.904   6.533  11.351  0.0584 -0.1276  0.1706
27523W        W31121  15.177  12.993  11.803 -0.0517 -0.1106 -0.2804
27524W        W31122   2.616  14.011   1.544 -0.2551 -0.0574  0.2946
27525W        W31123   5.336  16.216   7.790 -0.2202 -0.1166 -0.1950
27526W        W31124   4.718   6.585   4.363 -0.1100 -0.0133 -0.2588
27527W        W31125   0.467   6.803  15.005  0.0802 -0.2364  0.0845
27528W        W31126  11.710   4.507  14.724 -0.1996  0.0978  0.1012
27529W        W31127   5.451  13.132  14.085 -0.0957  0.1762  0.0888
27530W        W31128   6.017   8.312  11.248 -0.1000 -0.1014  0.0159
27531W        W31129   8.325   4.507  12.846  0.0261 -0.1622  0.0772
27532W        W31130   1.355   0.920   8.972  0.0203  0.2352 -0.1678
27533W        W31131  10.311  14.388  11.232  0.0762  0.1759 -0.1524
27534W        W31132   0.711   5.179   5.986 -0.1489 -0.0042  0.3162
27535W        W31133   2.704   4.428   6.436  0.0329  0.0938 -0.0386
27536W        W31134   2.038  10.997   2.451  0.1016  0.0592  0.3061
27537W        W31135  13.766  14.025   7.775 -0.0540 -0.0473 -0.3751
27538W        W31136   6.991  14.830   4.641 -0.0666 -0.1196  0.2738
27539W        W31137  10.231  14.903  12.446  0.0711 -0.1012 -0.1035
27540W        W31138   3.640  15.067  13.474 -0.0361  0.0711  0.0606
27541W        W31139  16.257   4.611  13.860  0.0450 -0.2184  0.1276
27542W        W31140  16.345  12.455  14.057  0.2523 -0.0783  0.5784
27543W        W31141  10.387   2.623  14.625  0.0462 -0.1611 -0.0377
27544W        W31142   7.031  12.411   1.878 -0.1638 -0.0445 -0.0213
27545W        W31143  11.871   6.692  12.602 -0.0569  0.0276 -0.0919
27546W        W31144  10.053   0.836   8.489 -0.0816 -0.0531  0.1980
27547W        W31145  14.389   7.199  11.695 -0.0362 -0.0476  0.0676
27548W        W31146  15.374  14.812   1.775  0.2363  0.0797  0.2837
27549W        W31147  15.469   6.905  10.394 -0.1102  0.0189  0.0855
27550W        W31148  16.328   9.441   9.163 -0.1963  0.1589 -0.2733
27551W        W31149  14.863   5.501  10.441  0.0504  0.0749 -0.2937
27552W        W31150   4.987   2.521   3.223 -0.1804  0.2635 -0.2547
27553W        W31151  16.255  10.567   1.500 -0.0500  0.2028  0.0473
27554W        W31152   3.114  11.541   4.501 -0.2868  0.2335 -0.0350
27555W        W31153   9.470  11.579   0.447 -0.1083  0.1331 -0.1895
27556W        W31154   8.727   2.403   1.894  0.1187  0.3362  0.0923
27557W        W31155   5.831  10.249   8.842 -0.1544 -0.0615 -0.0471
27558W        W31156   3.625   2.980  14.981  0.0494  0.1813  0.2038
27559W        W31157   1.440  15.166   6.485 -0.1424  0.0271 -0.0923
27560W        W31158  13.333  13.260   8.843 -0.3696 -0.0919 -0.1782
27561W        W31159  14.161   8.896   9.511 -0.0287 -0.0454  0.1194
27562W        W31160  12.763   0.703   8.559  0.2232  0.0061  0.0158
27563W        W31161   2.150   7.145   7.847  0.1303  0.0200 -0.2949
27564W        W31162  13.237  13.384  14.298 -0.0690 -0.0505 -0.2182
27565W        W31163  12.632  10.981   1.337  0.2588 -0.1965  0.0315
27566W        W31164   5.183  12.551   4.935 -0.0552  0.0923 -0.0297
27567W        W31165  13.231   7.159   6.851  0.0020  0.2385 -0.0995
27568W        W31166   3.285   7.500   3.315  0.1870  0.0845 -0.0542
27569W        W31167   1.431  11.287   8.110  0.0127 -0.1422 -0.1552
27570W        W31168   9.505   9.245   1.497 -0.1443  0.1384 -0.0926
27571W        W31169  10.875   6.862  16.051  0.4607 -0.0499  0.2289
27572W        W31170   1.815  14.625   9.744 -0.1651 -0.2310  0.2698
27573W        W31171   8.655  16.164   1.410 -0.0020  0.0286  0.0292
27574W        W31172   4.501   0.659   2.517  0.1311  0.2169 -0.0887
27575W        W31173   1.690   1.530  11.593  0.1956 -0.2199 -0.0706
27576W        W31174   7.257  10.799   3.793  0.2263 -0.1013 -0.2016
27577W        W31175  11.097  12.175  11.449 -0.0567  0.0824 -0.0002
27578W        W31176  14.769   0.566  11.824 -0.0499 -0.3360  0.0533
27579W        W31177   2.471   2.017   8.971 -0.0846 -0.0326 -0.2666
27580W        W31178   5.336   3.995   1.182  0.1795 -0.2310  0.1147
27581W        W31179   0.574   3.835   8.925  0.0100  0.1597  0.2065
27582W        W31180   8.994   0.471  10.654 -0.0842  0.0381 -0.2954
27583W        W31181  11.348   3.251  13.695  0.0738 -0.0241 -0.3503
27584W        W31182  14.268   3.044   0.594  0.1280  0.0331  0.0266
27585W        W31183  10.220  12.340   6.952  0.0595 -0.1452  0.0645
27586W        W31184   8.096   5.391   0.319 -0.1869  0.2170 -0.1733
27587W        W31185   3.538  14.234   0.274 -0.0613  0.0000  0.2062
27588W        W31186  15.586   0.968   6.682  0.1863 -0.2615  0.0120
27589W        W31187  10.753   3.727  16.050 -0.3605  0.0405  0.0865
27590W        W31188   4.421   4.811   9.320 -0.1372  0.1780 -0.0181
27591W        W31189  13.841   6.115   4.642  0.2582 -0.1399 -0.0980
27592W        W31190   5.218  10.850   5.168  0.2090  0.0645  0.2370
27593W        W31191  13.302  11.953  15.994 -0.0021 -0.2172 -0.1421
27594W        W31192  13.261   1.699   6.242  0.0045  0.1128  0.1701
27595W        W31193  13.938   1.362   7.455 -0.2951 -0.0380  0.0424
27596W        W31194   6.427   5.874   5.027 -0.2708 -0.1975  0.0297
27597W        W31195   1.886   7.007   5.208 -0.2399 -0.0865  0.1051
27598W        W31196   6.669   7.452   4.641 -0.3967 -0.0696 -0.1518
27599W        W31197   5.154  12.327  13.653  0.2060 -0.3845 -0.0140
27600W        W31198   1.442   5.492   2.312 -0.1216 -0.2144 -0.0325
27601W        W31199   5.086  10.529  10.516 -0.1132 -0.0325  0.4223
27602W        W31200   7.493  11.150   5.429  0.2454 -0.1129  0.2347
27603W        W31201   0.690  15.520   8.495 -0.0051 -0.1165 -0.1774
27604W        W31202   8.621   0.624  13.236 -0.1163 -0.0645 -0.1630
27605W        W31203  10.993   2.174   9.962 -0.0534  0.0522 -0.0040
27606W        W31204   0.572  13.460  10.539  0.0295  0.0027 -0.2166
27607W        W31205  14.105   1.198   6.823  0.3657 -0.1661  0.0538
27608W        W31206  10.575  10.592  14.940 -0.0313 -0.3003 -0.2171
27609W        W31207  15.003   6.092   5.857  0.3045 -0.1238  0.2132
27610W        W31208   7.942   6.554  15.942  0.2361 -0.2741 -0.0992
27611W        W31209   4.571  16.001   6.641  0.1924 -0.1954  0.2431
27612W        W31210   0.545   7.835  14.866 -0.0132  0.1342  0.2117
27613W        W31211  15.987   7.264   5.615 -0.1440 -0.0268  0.0074
27614W        W31212   7.981   8.340  15.548 -0.1827  0.0366 -0.0666
27615W        W31213  12.254   0.495   3.765  0.1062  0.0671  0.0786
27616W        W31214  12.545   1.147   5.775 -0.1988  0.1220  0.1696
27617W        W31215  12.921  13.178   0.374  0.2800  0.0373  0.1141
27618W        W31216  16.294  11.704  16.224  0.2060 -0.1543 -0.0836
27619W        W31217   6.029  15.815   1.013  0.1399  0.0531 -0.0855
27620W        W31218  14.570   2.278   3.634  0.1435  0.0501  0.1071
27621W        W31219   8.460  15.099  12.978 -0.2034 -0.0803  0.1873
27622W        W31220   4.328   6.904   0.667 -0.1529  0.1619  0.0831
27623W        W31221   0.481  10.360  13.321 -0.2762 -0.0120  0.0843
27624W        W31222  15.528  15.864   5.384  0.2465 -0.1140  0.1371
27625W        W31223   7.172   5.269   4.955 -0.0442 -0.2841  0.2647
27626W        W31224   0.468   7.231   0.230 -0.4100 -0.0111 -0.0674
27627W        W31225   5.221   6.361  14.654  0.0466 -0.5113 -0.0403
27628W        W31226   7.839   4.147  13.671  0.2947  0.1857 -0.1261
27629W        W31227   2.719   0.039  11.491  0.0659  0.1234  0.2409
27630W        W31228  10.448  12.783  15.401  0.1320  0.1936  0.3175
27631W        W31229  12.730   9.515   5.113 -0.4355  0.0153  0.0830
27632W        W31230   8.083  15.347   6.275  0.0832  0.0149 -0.0405
27633W        W31231  12.627   7.862  13.903 -0.1169  0.1323  0.0176
27634W        W31232   9.230   8.111   8.689  0.0558  0.0248 -0.1399
27635W        W31233  15.544  11.729  15.961 -0.2130 -0.1967 -0.0229
27636W        W31234   8.601   4.597   2.755 -0.1409  0.0974 -0.2098
27637W        W31235  14.750  14.451   3.805 -0.0133  0.2833  0.0511
27638W        W31236  10.162  14.093  10.104  0.0202 -0.1914  0.1352
27639W        W31237  16.316   4.073   3.746  0.0944  0.0324  0.0728
27640W        W31238   9.375  14.039   9.765 -0.1266 -0.1143 -0.1270
27641W        W31239  14.140   0.914   1.294  0.4066  0.0850 -0.0939
27642W        W31240   5.053  11.991  14.052  0.2351 -0.0647  0.2096
27643W        W31241   9.321   7.185  11.054  0.0432 -0.1399  0.0758
27644W        W31242  13.149   9.981   0.280 -0.0082 -0.1774  0.0375
27645W        W31243   4.795  12.332   7.416 -0.1687  0.0980  0.0689
27646W        W31244  15.450  13.448   6.446 -0.2714  0.1630  0.0096
27647W        W31245   3.645   1.637   3.878 -0.2099 -0.0495  0.1062
27648W        W31246   1.938   3.124  13.289  0.1645  0.1700  0.0155
27649W        W31247  13.643  11.001   9.476  0.0769  0.2832 -0.0619
27650W        W31248   7.006   9.974   0.040 -0.0389 -0.0730  0.0262
27651W        W31249   7.190  10.298   3.726 -0.0191 -0.2163  0.0535
27652W        W31250   7.856   5.910   1.631 -0.1437 -0.2678 -0.0745
27653W        W31251   7.495   5.177  15.420  0.1005  0.1543  0.2807
27654W        W31252   2.289   4.274   1.258  0.1485 -0.1100  0.5114
27655W        W31253  10.563   0.530   5.440  0.0770 -0.2612  0.0951
27656W        W31254  15.450   7.961   3.022 -0.1406 -0.0042  0.1805
27657W        W31255   2.298   8.500   8.594 -0.0604  0.0143  0.0754
27658W        W31256   0.082   0.305   4.694 -0.2684  0.0859 -0.1657
27659W        W31257  10.968  15.214   4.876  0.2694 -0.1540 -0.0118
27660W        W31258   7.063   5.051   0.099 -0.1239  0.0679 -0.0789
27661W        W31259   8.421   2.451   3.978 -0.0535  0.3295 -0.0062
27662W        W31260   0.262   7.826  13.907  0.0943  0.0337  0.1281
27663W        W31261  13.447  14.775   8.371 -0.1372  0.0640 -0.2465
27664W        W31262   8.793  12.917   4.740 -0.0170  0.1224  0.0380
27665W        W31263   9.163   1.253   3.522 -0.3488 -0.0405 -0.3046
27666W        W31264   0.259   6.018   1.292  0.1694  0.1736 -0.0610
27667W        W31265   7.338   3.668   7.254 -0.1626  0.1587 -0.0014
27668W        W31266  11.448   0.034  10.932 -0.0783  0.0728  0.0963
27669W        W31267   8.221   5.463  14.939  0.1776  0.1522 -0.0421
27670W        W31268   9.158   7.328   3.668  0.2102  0.2261  0.1646
27671W        W31269  15.220  13.711   4.529  0.3681  0.1702  0.1392
27672W        W31270   4.315  13.266   6.654 -0.2611 -0.2215 -0.0009
27673W        W31271  14.050   3.381   2.368 -0.1004  0.1556  0.1760
27674W        W31272   1.517  12.131   1.885  0.2805 -0.0546  0.3325
27675W        W31273  13.181   1.099   5.225 -0.0491 -0.1648  0.1295
27676W        W31274  14.647   3.923  11.272  0.0220 -0.2949 -0.0009
27677W        W31275  15.421  13.624  13.140  0.1485  0.1413  0.0684
27678W        W31276  14.304  14.825   7.828  0.2104  0.1606  0.2536
27679W        W31277   0.030   5.906   9.042 -0.0939  0.1834 -0.2630
27680W        W31278   4.405   5.269   9.693  0.0170 -0.0583  0.0166
27681W        W31279  14.539  10.115   1.193  0.1138  0.0730  0.5070
27682W        W31280  14.684   7.535   9.944 -0.3778 -0.3401  0.0111
27683W        W31281   2.211   1.871   1.017 -0.1027 -0.0496 -0.2068
27684W        W31282   4.090   6.661   1.108  0.1470  0.1541 -0.3255
27685W        W31283  11.495  12.992   2.040  0.0704  0.1177 -0.1153
27686W        W31284  13.405  15.375  10.809  0.3175  0.2697  0.0617
27687W        W31285  14.344  12.873   2.320  0.3596  0.1239 -0.1309
27688W        W31286   9.517  13.026   0.146  0.0787 -0.1236  0.1875
27689W        W31287  14.919   3.701  12.799  0.3297  0.0059  0.0279
27690W        W31288   8.958  15.978   1.775  0.0743 -0.3313  0.0840
27691W        W31289   0.304  10.273   3.941 -0.2032  0.1836 -0.1508
27692W        W31290   6.781   6.070  12.442 -0.0513 -0.0207  0.0350
27693W        W31291   7.808  10.315   6.331 -0.0289  0.0562 -0.1191
27694W        W31292   8.603  10.465  15.179 -0.1368 -0.1735 -0.1499
27695W        W31293   9.526   5.608  15.228 -0.0617  0.0943 -0.1374
27696W        W31294  14.119   8.190  14.781 -0.0078  0.0351 -0.0932
27697W        W31295  13.223  12.402  11.506  0.0011  0.1625  0.0985
27698W        W31296   4.573  10.365  15.140 -0.0742 -0.0622 -0.0785
27699W        W31297  16.309   1.034  10.966 -0.1922 -0.3408  0.0726
27700W        W31298   7.570   4.374   2.254  0.0774 -0.1526 -0.2107
27701W        W31299   1.504   0.767   2.908  0.2153  0.1670 -0.0265
27702W        W31300  13.270  15.593   3.916  0.0578  0.1046 -0.2155
27703W        W31301   9.352   3.381   5.882 -0.3132 -0.0751  0.0054
27704W        W31302   4.754   6.678  15.982 -0.1288  0.1599 -0.3780
27705W        W31303  11.847  13.634   8.294  0.2745 -0.0347 -0.3907
27706W        W31304  10.296  13.472   1.862 -0.0379  0.0700 -0.1390
27707W        W31305  15.655   1.112   8.020 -0.3774 -0.2558 -0.3552
27708W        W31306  13.991  15.112   6.393 -0.0106 -0.0211  0.2283
27709W        W31307   1.001  15.027  12.991 -0.0642  0.2330  0.1099
27710W        W31308  13.683   7.475  15.669  0.0108 -0.0147 -0.3326
27711W        W31309   0.738  15.734   5.951 -0.3569 -0.2944  0.0922
27712W        W31310  15.746   6.276   6.822  0.0593 -0.0187 -0.2489
27713W        W31311   7.132   4.042   5.542  0.2409  0.1784 -0.1393
27714W        W31312  13.631  13.358   6.410 -0.1076  0.1677 -0.0698
27715W        W31313   8.694   3.840  13.304 -0.1227 -0.2970 -0.0306
27716W        W31314  10.461  14.081  10.751  0.4347 -0.0252  0.0658
27717W        W31315   1.765   0.500  16.210  0.1348  0.1190  0.1485
27718W        W31316   9.535   8.556   5.139 -0.2186 -0.2770 -0.0869
27719W        W31317   9.499   1.258   9.492  0.1313 -0.1796  0.0715
27720W        W31318  12.977  15.687   6.825 -0.0055 -0.1875 -0.0765
27721W        W31319   2.764  11.941   1.714  0.3793  0.1098  0.3001
27722W        W31320   6.731  12.688   7.536 -0.1709  0.2962 -0.1113
27723W        W31321   4.439   1.502  10.062  0.0743 -0.0250  0.0034
27724W        W31322   2.003  15.757   5.837 -0.0786  0.0526  0.3212
27725W        W31323  12.456  10.968  15.699 -0.0478 -0.0893 -0.1290
27726W        W31324   7.956  15.391   8.334 -0.0225  0.0914  0.1622
27727W        W31325  14.191   5.714   5.832  0.0023 -0.0435  0.1357
27728W        W31326   6.582  15.454   3.222  0.1610  0.0262  0.2054
27729W        W31327   4.972  13.644   6.798 -0.1358 -0.2571 -0.2640
27730W        W31328   1.943   2.295  11.378  0.3961  0.3053 -0.0352
27731W        W31329   6.821   3.899  10.768 -0.1966 -0.0871 -0.0766
27732W        W31330   3.451   9.201   3.120 -0.3716  0.1415  0.1991
27733W        W31331   7.288  15.770  10.035  0.0522 -0.0947 -0.2055
27734W        W31332   5.963  14.050  13.474  0.2531  0.2697  0.0153
27735W        W31333  11.493   5.002   4.948  0.0780 -0.0623  0.1342
27736W        W31334  12.452   9.616   1.530  0.2237  0.0265  0.1196
27737W        W31335   7.031   5.995   5.632 -0.0499 -0.1812 -0.0372
27738W        W31336   3.877   4.339   0.951 -0.4385 -0.0542  0.1221
27739W        W31337  14.819   2.074   4.383  0.1899  0.1914 -0.0239
27740W        W31338   5.089   4.654   1.785  0.2132  0.1805  0.2894
27741W        W31339   4.795  13.684   3.382  0.2247 -0.0743 -0.3226
27742W        W31340  13.367   9.842   2.555  0.1105  0.1198 -0.1955
27743W        W31341   1.673   9.163   2.758  0.0537 -0.2893  0.1899
27744W        W31342   6.894   2.326   8.697 -0.2659 -0.0208 -0.0090
27745W        W31343  14.179   5.024   4.540  0.0461 -0.2377 -0.1132
27746W        W31344  13.148   0.154   2.160  0.1127 -0.3108 -0.2072
27747W        W31345   0.951  14.836  13.900  0.1203 -0.1154  0.1467
27748W        W31346   6.519   8.368   1.679  0.0417  0.1440 -0.0667
27749W        W31347   7.888   0.974  14.976  0.1094  0.2675 -0.0585
27750W        W31348  15.821  10.300  11.436  0.1659  0.1297  0.0563
27751W        W31349   5.559   2.492   0.193  0.1419  0.0653 -0.4288
27752W        W31350  10.703   1.005   9.810 -0.0821  0.1441  0.0277
27753W        W31351   5.580  13.516   5.678 -0.2900 -0.0135 -0.1943
27754W        W31352   0.458  15.932  10.049 -0.0172 -0.0154  0.1296
27755W        W31353   7.674   3.091   4.404 -0.0730  0.0023 -0.1491
27756W        W31354   0.549  15.784  15.602  0.2097  0.1549  0.0751
27757W        W31355  13.263   8.204   6.704 -0.0831 -0.0089 -0.0589
27758W        W31356   6.631  14.105   3.972 -0.3770  0.0316 -0.0519
27759W        W31357   8.418   1.145   9.149  0.3393  0.0022 -0.0864
27760W        W31358  12.159  10.014  10.270 -0.1623 -0.0077 -0.1118
27761W        W31359   2.079   9.751   9.898 -0.0427 -0.0192 -0.3504
27762W        W31360   9.482  15.090  11.912  0.2590  0.0830 -0.0592
27763W        W31361  10.996  13.903  12.380  0.1965 -0.3539  0.1158
27764W        W31362   6.391   6.755   2.989 -0.1181  0.3497  0.0791
27765W        W31363  16.289  13.624   1.222 -0.0916  0.0506  0.0556
27766W        W31364   0.890   6.446  10.573  0.2555 -0.1956 -0.0099
27767W        W31365  15.559   6.281  13.618  0.1203 -0.0282 -0.2327
27768W        W31366  16.168  10.079   4.073  0.0666  0.0473  0.1624
27769W        W31367   3.410   0.533   4.075 -0.1181  0.2613  0.2692
27770W        W31368  14.931   2.194   5.378  0.0772  0.3261 -0.0397
27771W        W31369  15.572  15.008   2.987 -0.0673 -0.0054 -0.1171
27772W        W31370   7.338   2.148  14.390 -0.2056  0.0168 -0.1114
27773W        W31371  14.074  15.874   7.902 -0.2747  0.2162  0.0125
27774W        W31372   9.988   0.837   2.975  0.3725  0.1825 -0.1546
27775W        W31373  14.723   6.761  14.746  0.2735  0.2680  0.2166
27776W        W31374   9.730   5.181  14.319 -0.1017  0.2596  0.0189
27777W        W31375  12.929   4.183   5.879 -0.1101  0.2593  0.2095
27778W        W31376   6.923   2.685   4.799  0.2039  0.2801  0.1986
27779W        W31377  16.273   4.728   4.083 -0.0266  0.2659  0.0484
27780W        W31378   6.225  14.795   3.879 -0.0003  0.1096  0.0268
27781W        W31379  11.791  13.942   4.170 -0.0550  0.0782  0.1115
27782W        W31380   7.614   8.271  16.320  0.1006  0.0850 -0.2079
27783W        W31381   3.701   4.060   9.406 -0.1455  0.0626  0.3091
27784W        W31382   6.333   2.581   6.964 -0.2930 -0.3373  0.1068
27785W        W31383   8.914   5.247   3.137 -0.1658  0.1085  0.2932
27786W        W31384   0.960   7.314  12.601  0.1288 -0.1456 -0.2136
27787W        W31385   9.524   9.477   9.792  0.1066 -0.0225  0.0357
27788W        W31386   7.272   8.420   2.090 -0.0997  0.1383 -0.2785
27789W        W31387  14.704  14.678  10.221  0.2728 -0.0091  0.0969
27790W        W31388   8.639  10.438  15.663  0.1016  0.0996 -0.1566
27791W        W31389  12.305   9.835  13.441 -0.0153 -0.4300 -0.2376
27792W        W31390   9.264  15.915   1.421 -0.1931  0.3343  0.3450
27793W        W31391  16.190   3.611   8.483 -0.0818 -0.4399 -0.0274
27794W        W31392   4.787  16.274   7.032  0.0662 -0.0469  0.1459
27795W        W31393  13.885   8.841   4.379 -0.1983  0.1345  0.2798
27796W        W31394   5.205   5.399  11.055 -0.1318 -0.2002  0.1265
27797W        W31395   3.344   2.686   7.224 -0.0218 -0.0831 -0.1028
27798W        W31396   2.024  12.370  13.043  0.2569 -0.0266 -0.1839
27799W        W31397   5.943   8.292  10.411 -0.0604  0.0663  0.0783
27800W        W31398   9.569   3.209   0.676 -0.1364 -0.2354 -0.0747
27801W        W31399  11.749  13.162  12.515  0.2343 -0.1569 -0.1109
27802W        W31400   6.360  12.443   0.729  0.2349  0.3304 -0.0236
27803W        W31401  14.514   4.972   0.718  0.1968  0.2023 -0.0949
27804W        W31402   3.117  14.370   6.897  0.1323  0.4581 -0.1502
27805W        W31403   7.455  12.868  13.415  0.0962 -0.0895 -0.3183
27806W        W31404  10.705  11.399  13.594 -0.2690 -0.0275 -0.2734
27807W        W31405  11.497  15.394  14.838 -0.0500 -0.2426 -0.2446
27808W        W31406  12.228   7.252   5.132 -0.0812 -0.3242 -0.0874
27809W        W31407  15.730   4.942  11.833  0.3259 -0.0607 -0.0896
27810W        W31408  15.462   6.623   6.173  0.4561 -0.1895  0.0802
27811W        W31409  11.071   2.870   5.868  0.0478  0.2300  0.2676
27812W        W31410  11.789  10.110  15.514 -0.1349 -0.2071  0.2913
27813W        W31411  11.613   6.475  11.864 -0.0155  0.0145 -0.0960
27814W        W31412   0.602   0.008   2.044  0.0277 -0.1316  0.2090
27815W        W31413  15.211   1.148  10.211  0.1181 -0.1109  0.0928
27816W        W31414  12.636  13.435   7.314  0.0557 -0.3288  0.0931
27817W        W31415   5.558   6.847  15.319 -0.2685 -0.1344 -0.0373
27818W        W31416   5.099   4.500  13.281  0.0597 -0.3316  0.0508
27819W        W31417  10.983   2.408   3.168  0.0124  0.2822 -0.2050
27820W        W31418  12.585   9.436   6.579 -0.1177  0.0712 -0.1445
27821W        W31419   0.467   9.673   0.907  0.0533  0.0213 -0.1679
27822W        W31420  14.910   0.998   4.801  0.0071  0.2079  0.3038
27823W        W31421   0.325   4.601   6.763  0.2002 -0.1668  0.2874
27824W        W31422  12.655  12.494   2.445  0.0201  0.2807 -0.0261
27825W        W31423  11.534   8.162   0.935 -0.4303 -0.0252  0.2685
27826W        W31424  14.636  15.434   8.873  0.1461  0.0069 -0.1963
27827W        W31425   0.526   9.822  15.151 -0.1675 -0.0062  0.1056
27828W        W31426  12.401  13.025  14.659 -0.2782  0.0777  0.1400
27829W        W31427   4.242   4.616   6.257  0.0628 -0.0504  0.1000
27830W        W31428   4.013  15.337  14.137  0.1724 -0.0135  0.1621
27831W        W31429  13.686  14.449  14.391 -0.0790  0.2662 -0.0788
27832W        W31430  12.741   6.251   3.019 -0.0367 -0.1404  0.3037
27833W        W31431  12.991   3.423  10.979 -0.2030  0.0417 -0.1447
27834W        W31432  14.399  10.732   2.835  0.1502 -0.2592 -0.0161
27835W        W31433   6.083   1.944   3.818 -0.1398  0.1857 -0.1074
27836W        W31434   0.921  13.846  12.185 -0.3982  0.1661 -0.0306
27837W        W31435   2.323   8.160  15.265 -0.1843 -0.0810  0.3267
27838W        W31436  11.174   7.288  14.263  0.1595 -0.1360 -0.1565
27839W        W31437   6.498   9.458   9.290  0.2848 -0.1968 -0.3793
27840W        W31438   8.708  12.783   9.029 -0.2904 -0.1334  0.3279
27841W        W31439   0.313   9.338  13.857  0.2090 -0.1658 -0.1760
27842W        W31440  11.460   2.293  12.527  0.0900  0.1084  0.3308
27843W        W31441   2.379   2.559  12.112 -0.1076 -0.0085 -0.4091
27844W        W31442   1.893  12.480   8.599 -0.0464 -0.2193 -0.0389
27845W        W31443   3.912   9.127  15.012  0.0721  0.1240  0.0451
27846W        W31444   2.439  14.769   9.320 -0.1367  0.2088  0.1846
27847W        W31445  10.715   2.843   6.309  0.0734 -0.1556  0.3124
27848W        W31446   3.631   0.914   9.196 -0.3114 -0.0524  0.1096
27849W        W31447   4.708   4.049   1.432  0.1424 -0.0409 -0.1566
27850W        W31448   6.192   0.237  10.623  0.2166  0.2177  0.1132
27851W        W31449  15.722  13.658   9.895  0.0645  0.0956 -0.0625
27852W        W31450  13.833  14.737   8.746 -0.1383  0.0214 -0.1699
27853W        W31451  14.203  12.734  12.229 -0.0445  0.1746  0.0784
27854W        W31452  13.523   2.840   9.646 -0.1534 -0.1837 -0.0091
27855W        W31453   8.446  13.602   9.361 -0.0315 -0.4608  0.1762
27856W        W31454   1.035   0.682   2.568  0.0255 -0.0694 -0.2587
27857W        W31455   0.826   5.514   5.570 -0.1202  0.1244 -0.2696
27858W        W31456   1.114  12.608   2.722  0.1715 -0.3701  0.0357
27859W        W31457   1.373   7.358  12.298 -0.1823  0.2225  0.0751
27860W        W31458   1.067   8.874   0.989  0.1164  0.1253  0.0299
27861W        W31459   9.672   9.971   4.652 -0.0038  0.0465 -0.0838
27862W        W31460   2.432   4.972   9.270  0.0608 -0.3327  0.1499
27863W        W31461   9.136   3.438  10.498 -0.2912 -0.0726 -0.0918
27864W        W31462   2.675  12.013   0.293 -0.0423 -0.0365 -0.0297
27865W        W31463   0.429   2.849  15.540  0.2792  0.1617  0.0717
27866W        W31464   2.724  12.499   3.344 -0.3053 -0.0233  0.0729
27867W        W31465   9.945   9.095  14.552 -0.0260 -0.1502  0.0438
27868W        W31466  11.548   5.302   2.623 -0.2318 -0.1424  0.0815
27869W        W31467  16.102   5.545  15.682 -0.0397  0.0102 -0.2966
27870W        W31468  11.698  10.161  11.846  0.0317 -0.1582 -0.2984
27871W        W31469   9.940  14.413   8.161 -0.0041  0.2277 -0.1222
27872W        W31470   8.690   7.188   7.099 -0.2994 -0.2114 -0.0033
27873W        W31471   8.821  14.304  12.233 -0.2562  0.0014  0.0794
27874W        W31472  11.100   8.056  13.757  0.0104 -0.1362 -0.1683
27875W        W31473   5.712  15.089   9.689  0.0863  0.0349  0.2254
27876W        W31474   3.168   9.765   6.734 -0.2904 -0.1015 -0.0536
27877W        W31475   9.260  14.100   8.549 -0.0202 -0.2162  0.4798
27878W        W31476  12.736   1.671   5.789 -0.0899 -0.1877 -0.1586
27879W        W31477   1.734   8.858  11.923  0.1243 -0.1806 -0.0867
27880W        W31478   9.297  12.053  13.402  0.1037 -0.1961 -0.1960
27881W        W31479  15.202   6.308   9.202 -0.2585 -0.1109  0.0685
27882W        W31480   8.086  15.838   6.076  0.0598 -0.0653 -0.1036
27883W        W31481   7.947   3.227   2.392  0.4954 -0.2799  0.0252
27884W        W31482  14.466   8.540  11.504 -0.0966  0.2588  0.0105
27885W        W31483  10.413  14.815  11.490 -0.2561  0.1470 -0.4462
27886W        W31484   5.684   4.139  15.868  0.0419  0.2976  0.0174
27887W        W31485  12.260  14.741   3.747 -0.0375  0.0984 -0.0818
27888W        W31486   3.313  10.076   3.410 -0.0150 -0.0232  0.1061
27889W        W31487   0.604   7.223   1.483  0.0529  0.4847 -0.1756
27890W        W31488   7.619   3.814   5.669 -0.0838  0.1162 -0.0331
27891W        W31489   1.484   3.628  13.793 -0.1530 -0.1773  0.1593
27892W        W31490   6.459  13.458  10.374  0.4021 -0.0926  0.1829
27893W        W31491  15.776  12.880  15.794  0.0675  0.0717 -0.0525
27894W        W31492   2.760   0.111  12.920 -0.2383  0.1161  0.0267
27895W        W31493  12.420   3.023   5.670 -0.1072  0.1143 -0.3310
27896W        W31494   3.510   9.020   9.451  0.0384 -0.2165  0.0201
27897W        W31495  15.578   7.063  13.181 -0.1929  0.2280 -0.1150
27898W        W31496   9.969  13.808   2.113 -0.1500  0.1047 -0.3100
27899W        W31497   9.390   3.380   5.350 -0.0502  0.3428  0.0609
27900W        W31498  13.540  13.845   3.798  0.0062 -0.0831  0.0849
27901W        W31499   3.517  14.691  14.339 -0.1899  0.0385 -0.0656
27902W        W31500  14.617  13.659  11.195  0.0326 -0.1172 -0.0205
27903W        W31501  11.857  11.076   1.269 -0.0327  0.2149 -0.2070
27904W        W31502   0.106   3.640   9.704  0.1993  0.0310  0.3083
27905W        W31503   4.884   0.125   0.333  0.1188 -0.0834 -0.0457
27906W        W31504   5.539  10.769   3.099  0.0719  0.0001  0.0397
27907W        W31505   9.617  10.407   9.387 -0.0399  0.0343 -0.2873
27908W        W31506  10.927  12.364  16.344 -0.2701 -0.1528  0.0011
27909W        W31507   6.974   0.170  11.430 -0.0438  0.1995  0.0924
27910W        W31508   0.619   4.938   3.788 -0.1197  0.0535 -0.1573
27911W        W31509   5.181   4.950  14.045 -0.0861  0.2009 -0.0389
27912W        W31510   7.240  14.312   4.739  0.1623  0.3638 -0.2064
27913W        W31511   4.008  13.814   5.234 -0.3191 -0.0866  0.0121
27914W        W31512   9.960   1.148   8.958 -0.1074  0.0518  0.4410
27915W        W31513   2.857  13.170   2.215  0.0664  0.2390  0.0168
27916W        W31514   6.274  15.205   2.014  0.0560  0.0821  0.0520
27917W        W31515   7.299   9.077   7.212 -0.2190  0.0601 -0.0544
27918W        W31516   5.172  13.212   5.482 -0.0523 -0.2777 -0.3327
27919W        W31517   7.269  14.200   0.204  0.1438  0.1486  0.2869
27920W        W31518  15.078   5.076  11.376 -0.0931  0.0722 -0.3689
27921W        W31519   8.050   6.836   3.204 -0.0577 -0.0126  0.0364
27922W        W31520   6.451   6.821  15.307  0.2754  0.0326  0.1850
27923W        W31521   7.006  16.173  14.148  0.0780  0.0581 -0.0799
27924W        W31522  12.732  14.199  13.914 -0.3910  0.0828 -0.4060
27925W        W31523  14.254   5.287  11.551 -0.0531  0.0332  0.1902
27926W        W31524   8.446   9.437   3.129 -0.0997 -0.1197  0.1855
27927W        W31525  16.126  11.443  13.880 -0.0088 -0.0341 -0.0157
27928W        W31526   0.314  12.360   5.106 -0.0026  0.3292  0.0667
27929W        W31527  14.048  11.752   8.631  0.0458 -0.1932  0.2726
27930W        W31528   3.818  13.845   9.859 -0.1165  0.1226  0.0831
27931W        W31529  11.895  10.046   9.303  0.0249  0.1186  0.0229
27932W        W31530   6.264  15.756  10.056  0.2773 -0.0884  0.0071
27933W        W31531   5.868   9.656   8.693  0.0283  0.2565  0.2468
27934W        W31532  10.299   5.496  10.516  0.2162 -0.5127  0.0158
27935W        W31533  10.409   3.248   3.889  0.2174 -0.1268  0.0548
27936W        W31534  12.991  11.286   5.053  0.0468  0.2853 -0.0943
27937W        W31535   8.354   5.293  10.372  0.0041  0.3080  0.0642
27938W        W31536   8.130   2.094   7.502 -0.0338  0.0029 -0.2732
27939W        W31537  10.410   3.879  14.565  0.5075 -0.0159  0.1100
27940W        W31538   3.850  14.459   3.965 -0.1798  0.0533  0.0133
27941W        W31539   2.211   6.730   4.884  0.3702 -0.1023  0.1044
27942W        W31540   6.146  16.029   5.851  0.1231  0.0093  0.0217
27943W        W31541   6.998   2.637  12.389  0.2480 -0.1130  0.2639
27944W        W31542  13.918  14.525  12.658 -0.0184  0.2885  0.2619
27945W        W31543  12.140   6.791   8.349  0.1285 -0.5153  0.2227
27946W        W31544   2.441  11.517  10.257 -0.0340  0.2745  0.0651
27947W        W31545   3.384   2.454   2.716 -0.0354 -0.3361 -0.0903
27948W        W31546   7.453   3.474  15.509 -0.2634 -0.2082 -0.1629
27949W        W31547  16.106  15.440  13.130 -0.1368  0.1563  0.1576
27950W        W31548   1.086   4.446  10.061 -0.1535 -0.1987 -0.0893
27951W        W31549  10.880   0.833   6.895 -0.0342  0.0574 -0.2441
27952W        W31550   7.992  10.471   6.793  0.1281  0.0403  0.3527
27953W        W31551  10.723   3.381   0.625 -0.1421 -0.1172 -0.3356
27954W        W31552   6.646  12.591  15.912 -0.2210 -0.1001 -0.0743
27955W        W31553  13.160  14.728   0.556  0.2758 -0.0805 -0.2045
27956W        W31554  12.413   8.819   4.137 -0.1064  0.5705 -0.2646
27957W        W31555   6.331  11.052   9.409  0.1995 -0.1691 -0.0991
27958W        W31556  12.534   5.533   0.633  0.4228 -0.1416  0.1579
27959W        W31557   3.045  14.205  11.883 -0.0858 -0.0648 -0.0337
27960W        W31558   9.832  14.227  11.239  0.4222 -0.0180  0.0180
27961W        W31559   8.792   2.648   0.703 -0.0151  0.1361 -0.0134
27962W        W31560   4.660  13.942   1.138  0.2822  0.1523  0.2208
27963W        W31561   1.908  10.730   6.773  0.2503  0.0021  0.0201
27964W        W31562   0.305   0.948  13.658 -0.1940 -0.2353 -0.0580
27965W        W31563   8.359  13.019  11.257 -0.2105 -0.2173  0.1925
27966W        W31564  14.214  12.138   4.460  0.0468 -0.0950 -0.1973
27967W        W31565  16.074  12.103   0.492  0.2819 -0.1568 -0.4140
27968W        W31566  15.025   1.165   5.839 -0.0854 -0.1210  0.0489
27969W        W31567   9.387  12.548  13.157  0.0610  0.0343  0.0824
27970W        W31568   6.833  10.183   0.517  0.0816 -0.0600 -0.1348
27971W        W31569   8.845  11.417   1.128 -0.0689  0.3895 -0.0780
27972W        W31570   9.019   4.531  10.224 -0.1365  0.0248  0.0284
27973W        W31571   6.043   6.053   3.665 -0.4234 -0.1687 -0.1177
27974W        W31572   7.945   2.355  10.127 -0.0661  0.1794  0.0594
27975W        W31573   9.330   2.559   3.685  0.1439 -0.2702  0.1362
27976W        W31574   2.694   0.320   9.856  0.0259 -0.2819 -0.2420
27977W        W31575  15.476   8.824   8.859 -0.0820  0.1572 -0.2352
27978W        W31576   7.333  15.723  14.250 -0.3511 -0.4677 -0.0209
27979W        W31577   0.486   6.831   5.222 -0.0010  0.0615  0.1754
27980W        W31578  12.160   8.807  13.185  0.2564 -0.1492  0.0453
27981W        W31579   8.781  12.798   1.186 -0.0719  0.1920  0.0027
27982W        W31580   9.352  12.138   4.529 -0.2269 -0.4617  0.0620
27983W        W31581  11.363   6.359   4.324 -0.0622 -0.1331 -0.2613
27984W        W31582  12.111  16.321   4.540  0.3682  0.0719  0.2713
27985W        W31583   6.098   5.342   9.977 -0.0846 -0.1424  0.1223
27986W        W31584   8.411   9.741  13.871  0.1277  0.0107 -0.1480
27987W        W31585  14.569  14.235  15.088  0.0347  0.2309  0.1218
27988W        W31586   0.468  15.909  11.447  0.2808  0.1209  0.2203
27989W        W31587  11.387   8.928   7.192 -0.0874  0.2383  0.0787
27990W        W31588  15.790   4.286   1.820 -0.0577 -0.1732 -0.1036
27991W        W31589   0.460  16.142   7.366 -0.2020 -0.0952  0.1224
27992W        W31590   6.047  12.475  10.118 -0.3073  0.0302 -0.0310
27993W        W31591  16.002   4.702   8.228 -0.2891  0.0473  0.0365
27994W        W31592  15.217   6.422   2.118  0.0677 -0.0884  0.1239
27995W        W31593  15.020  12.883  12.269 -0.0071  0.1371  0.3660
27996W        W31594  10.101   4.500  13.486 -0.0980 -0.1348  0.0248
27997W        W31595   7.132  11.547   5.335  0.3060  0.0075  0.0470
27998W        W31596   7.938   3.041   7.460  0.1155  0.1226  0.2983
27999W        W31597  13.328   2.397   8.470  0.1114  0.1262  0.0485
28000W        W31598  10.977   6.180  10.985 -0.1833 -0.2613 -0.4116
28001W        W31599   1.935   2.915   2.725 -0.0603  0.3839 -0.0193
28002W        W31600   7.517   6.544  13.305 -0.3645  0.0777  0.0262
28003W        W31601   2.332   8.776   1.969  0.1272 -0.1248  0.1287
28004W        W31602  14.978   7.878   9.289  0.1049  0.1413 -0.0502
28005W        W31603   0.941   7.878   0.842  0.1183  0.0684 -0.0619
28006W        W31604  11.656  12.451   2.881 -0.4227 -0.0425  0.0408
28007W        W31605   9.292   0.447   4.511  0.1345  0.1284  0.1678
28008W        W31606  15.858   5.348   6.653  0.1240  0.1297  0.3257
28009W        W31607   7.635   3.197  15.033 -0.0788 -0.0060  0.1236
28010W        W31608   2.868   2.064   4.818  0.0527  0.0855 -0.1133
28011W        W31609   7.977   4.378   3.529  0.1696 -0.1949 -0.1423
28012W        W31610   3.533   6.219  15.860  0.0321 -0.1788  0.1030
28013W        W31611  12.363   8.215   0.640 -0.0650  0.2241 -0.1457
28014W        W31612   9.390  11.225   9.289 -0.0662  0.1880  0.0936
28015W        W31613  11.608   3.631  12.826 -0.0827  0.1155  0.1948
28016W        W31614   8.297  10.255  11.025 -0.2316 -0.1498 -0.0588
28017W        W31615   8.918   7.548   0.033 -0.2052  0.1079  0.2215
28018W        W31616  15.603  13.868   1.735  0.0162  0.5018  0.3850
28019W        W31617   0.375   3.669   2.596  0.0931 -0.0783  0.0323
28020W        W31618   9.116   2.853  12.457 -0.1347 -0.0669 -0.0971
28021W        W31619  10.753   9.016   0.727  0.1091  0.1152  0.0174
28022W        W31620  11.864   0.730  15.584 -0.2505 -0.4539  0.1306
28023W        W31621   1.355   8.505   7.813  0.1586 -0.0273  0.0224
28024W        W31622   1.800  10.137   8.722 -0.1396  0.1879 -0.1553
28025W        W31623  15.747   3.282   9.333  0.0164 -0.0529  0.2059
28026W        W31624  15.869   2.089   5.866  0.0069 -0.3133 -0.1900
28027W        W31625  13.322   3.623  11.286  0.3894 -0.0234 -0.0915
28028W        W31626   6.078  14.485  12.147  0.0249 -0.0543 -0.0617
28029W        W31627   8.729   9.714  10.583 -0.1157 -0.0056  0.0307
28030W        W31628  11.709   7.088   4.833  0.0430  0.0868 -0.1432
28031W        W31629   2.829   5.993   6.382 -0.3483  0.2867  0.2802
28032W        W31630   4.348   0.737  15.893  0.0798 -0.2074 -0.0259
28033W        W31631   1.506  11.377  13.697 -0.1077 -0.0767  0.0815
28034W        W31632  10.312  10.648   5.139  0.0690  0.0496  0.1427
28035W        W31633   1.268   9.738  15.223  0.2824 -0.1414 -0.0249
28036W        W31634  10.524   9.286   5.213  0.1548  0.0793 -0.3377
28037W        W31635  10.795   7.394   3.317  0.0849 -0.0749 -0.0830
28038W        W31636   7.364  12.373   1.088  0.0729 -0.1020 -0.1212
28039W        W31637   0.775   6.299   6.158 -0.2524  0.2855 -0.0115
28040W        W31638  14.768   8.654   6.788 -0.1956  0.1905  0.1588
28041W        W31639   5.071   4.304  12.034 -0.1322  0.0297 -0.3243
28042W        W31640   8.052  16.365   9.941  0.0244 -0.0818  0.1900
28043W        W31641   1.682   0.793   7.988  0.2317 -0.0701 -0.2854
28044W        W31642  13.599   8.256   1.316 -0.1534 -0.3529 -0.0005
28045W        W31643  14.321  13.371  10.196  0.0207  0.5908  0.4390
28046W        W31644  16.342  11.761   2.120  0.1983 -0.2127 -0.0457
28047W        W31645  11.328   6.829   6.928 -0.0358  0.1817  0.0157
28048W        W31646   7.223   8.916   8.178  0.0434 -0.0147 -0.2470
28049W        W31647   7.567   7.781   4.653 -0.2383 -0.0012 -0.3523
28050W        W31648  12.325   3.733   5.926 -0.3365  0.2188  0.3753
28051W        W31649   5.081  13.264   1.760 -0.1421 -0.0439  0.1851
28052W        W31650   7.821   0.753   4.153 -0.0919 -0.2236  0.0067
28053W        W31651   8.450   0.356   9.138  0.0020 -0.1552  0.0697
28054W        W31652  12.302   5.008   6.471  0.3044  0.1060 -0.0162
28055W        W31653   0.596   0.215   8.480 -0.1336 -0.0570 -0.0309
28056W        W31654  13.990   8.028  16.047 -0.0008 -0.0447 -0.3036
28057W        W31655   7.598   1.151   1.555  0.2099 -0.0663  0.1945
28058W        W31656   8.314  12.772   6.711 -0.3573 -0.0453 -0.2101
28059W        W31657   9.473   6.804   7.154 -0.0839 -0.1465 -0.2946
28060W        W31658  10.743   8.278  10.544 -0.0289  0.0513  0.1129
28061W        W31659  10.073   9.084   3.615  0.2892 -0.0737  0.3075
28062W        W31660   6.430  15.153  13.978 -0.2387  0.2713  0.0167
28063W        W31661   0.393   7.649  10.148  0.0429 -0.0593  0.2176
28064W        W31662   9.743   7.404   3.589 -0.2075 -0.2182 -0.1056
28065W        W31663   2.814   1.792   1.771  0.1830 -0.1305  0.1016
28066W        W31664  12.180   5.312   4.647 -0.4268  0.1867  0.0407
28067W        W31665  12.339  15.798   8.575 -0.0949 -0.1093 -0.1498
28068W        W31666  14.734   0.847   7.945  0.1128  0.0412 -0.2316
28069W        W31667   5.360   6.204   9.580 -0.3362  0.0832 -0.0146
28070W        W31668   7.647   2.205   7.256 -0.0476 -0.2409 -0.0155
28071W        W31669  14.361  12.046   9.114 -0.0429 -0.2680 -0.1001
28072W        W31670   4.503  11.830  11.079 -0.1771 -0.0680  0.1187
28073W        W31671  14.703   2.820   2.776  0.0664 -0.1840 -0.2919
28074W        W31672  14.446  10.150   0.583  0.1375  0.0708  0.0734
28075W        W31673   4.028  15.910   1.158 -0.2497  0.0336 -0.0591
28076W        W31674   3.511   0.427  14.857 -0.3225 -0.2610  0.0486
28077W        W31675   0.554   4.613   8.060 -0.0226  0.0712 -0.1132
28078W        W31676  10.090  13.799  11.262  0.0966 -0.3909  0.2391
28079W        W31677   3.215  10.285  12.676 -0.2704  0.2853  0.0570
28080W        W31678   0.579  13.829  14.725 -0.2459  0.0195  0.2119
28081W        W31679  10.805   8.942  12.915 -0.3054  0.0813  0.0065
28082W        W31680   1.510  16.348  13.146 -0.0210  0.0288 -0.1838
28083W        W31681  14.314  13.248   0.969  0.0617 -0.0914  0.0508
28084W        W31682   3.066  12.489   7.307 -0.0616 -0.0331 -0.2681
28085W        W31683  13.742   7.092  13.581 -0.0700 -0.0688  0.2984
28086W        W31684   9.181  11.900   3.239 -0.0885 -0.2220 -0.1303
28087W        W31685   6.221  11.105   4.338 -0.1740 -0.0712  0.0232
28088W        W31686   7.359   3.521  16.367 -0.2031 -0.1775  0.0877
28089W        W31687   9.714   1.925   0.868  0.0361  0.1799 -0.2069
28090W        W31688   4.777   5.246   0.105  0.2020  0.0291 -0.2058
28091W        W31689   7.718   9.061   2.333  0.1288  0.1527  0.4172
28092W        W31690   1.011   2.927   6.517 -0.1612 -0.1512 -0.0714
28093W        W31691   2.704  13.437  14.514 -0.1176 -0.0696  0.0596
28094W        W31692  10.555   2.680  12.013 -0.2902  0.1570 -0.3282
28095W        W31693  15.178   7.007  14.723 -0.0842 -0.1174  0.0620
28096W        W31694  15.238   8.889   3.542  0.0247 -0.2440 -0.3404
28097W        W31695  10.939  10.061  11.157  0.2779  0.1523  0.0826
28098W        W31696  10.305   4.607   0.518  0.1481  0.3289  0.1116
28099W        W31697  15.852  14.483   8.848  0.1770  0.2431 -0.1385
28100W        W31698   9.624   5.050   1.484  0.1714 -0.1110 -0.0594
28101W        W31699   6.854  11.325  12.791  0.1819 -0.0990  0.0735
28102W        W31700   2.035   2.133  15.660 -0.0708  0.0097  0.2567
28103W        W31701   5.898  13.366  16.010 -0.2358  0.0247  0.3106
28104W        W31702   2.768   3.674  14.371  0.3130 -0.1034 -0.1509
28105W        W31703  10.407  11.232  12.499  0.2565 -0.0567 -0.1052
28106W        W31704   6.866   0.150  13.868  0.3879 -0.0558 -0.0901
28107W        W31705   3.541   9.227   0.787 -0.0798 -0.2511  0.3234
28108W        W31706   7.362   7.561  11.707 -0.1417  0.3181  0.2188
28109W        W31707   7.938  15.033   3.465 -0.1651 -0.1379  0.1434
28110W        W31708  11.570  15.862  14.642  0.0124 -0.0014  0.1516
28111W        W31709   9.259  13.009  10.916 -0.0702  0.1991  0.4666
28112W        W31710   6.914   1.639  10.645 -0.1403  0.1081  0.1558
28113W        W31711   5.326   8.881  10.007 -0.1500 -0.1831  0.0023
28114W        W31712   6.266   8.304   1.224 -0.2348  0.0956 -0.0808
28115W        W31713   8.154   0.632   7.531  0.0031  0.1281 -0.0709
28116W        W31714   4.368   0.336  15.487  0.1206  0.0054  0.0028
28117W        W31715   8.836   5.160   2.087  0.0190 -0.2734 -0.0559
28118W        W31716   8.102   6.279  14.372 -0.0347  0.1727 -0.0580
28119W        W31717   3.821   4.168   0.290 -0.0419  0.2027  0.1463
28120W        W31718  15.267   8.370  10.397  0.2012 -0.0703  0.1834
28121W        W31719  15.134   3.024   1.323 -0.0138  0.0863  0.0048
28122W        W31720   5.500   4.191   6.563 -0.0307  0.3352  0.4754
28123W        W31721  10.231  13.735   0.564 -0.0204  0.0686 -0.1905
28124W        W31722  13.520   4.749  13.290 -0.1674 -0.1043 -0.0365
28125W        W31723   9.690   4.468   1.437  0.2267 -0.0355 -0.0802
28126W        W31724   2.343   4.349  11.809  0.3342 -0.0045 -0.3364
28127W        W31725   3.487   8.698   5.275  0.1114 -0.0796 -0.0213
28128W        W31726  13.761   6.734  11.052 -0.1628 -0.0659 -0.1194
28129W        W31727   7.235   2.444   1.815 -0.2820 -0.0833 -0.0307
28130W        W31728  15.097  11.353   8.524  0.1444 -0.0322 -0.1052
28131W        W31729   2.857   2.071  14.189 -0.2521 -0.1025 -0.2748
28132W        W31730   5.081   5.321  12.522  0.1095 -0.0390  0.4384
28133W        W31731   9.239   9.229   7.541 -0.0392 -0.2492  0.1158
28134W        W31732   8.335   7.153  12.948  0.1739 -0.1252 -0.1423
28135W        W31733   8.717   1.842   8.138  0.3450 -0.3244 -0.0142
28136W        W31734   4.219   9.734  12.504  0.1634 -0.0559 -0.1852
28137W        W31735  11.923   9.862   1.222  0.0291  0.3134 -0.1826
28138W        W31736   0.752  10.541  15.546 -0.0963  0.1875  0.1468
28139W        W31737   0.200   7.415   7.036 -0.2534  0.1276  0.1622
28140W        W31738   1.545   5.539   8.293 -0.0572  0.0046 -0.2615
28141W        W31739  12.580  13.467  10.080 -0.0586  0.0876  0.3608
28142W        W31740   1.599  10.074  10.680  0.1504  0.3286  0.2168
28143W        W31741   8.875  14.920   7.710  0.0016  0.0578  0.0482
28144W        W31742   5.851   9.410   6.397 -0.0008 -0.1278  0.3269
28145W        W31743  10.592   4.561   2.994 -0.0751  0.0172  0.1049
28146W        W31744   4.376  11.019  11.440 -0.0310  0.0519 -0.3510
28147W        W31745  13.190   2.936  14.035  0.2024  0.1335 -0.2041
28148W        W31746  13.727  10.516  10.902 -0.3054  0.1963  0.0862
28149W        W31747  15.968  10.112   4.608  0.1236  0.1559  0.0405
28150W        W31748   0.169  16.180   2.159  0.0213  0.0510  0.0071
28151W        W31749  12.472  14.492  15.031 -0.0484 -0.0992  0.2786
28152W        W31750  12.056  13.681   2.308 -0.1060  0.0720  0.0214
28153W        W31751  13.824  10.162  13.609 -0.2096 -0.1285 -0.1223
28154W        W31752   2.069  12.358   2.460  0.0785  0.0062 -0.0448
28155W        W31753   0.459   9.269  11.038 -0.0859 -0.2612  0.4670
28156W        W31754   3.896   6.396   5.543  0.0075 -0.1781 -0.1452
28157W        W31755  13.729   5.934   9.275 -0.2930  0.1372  0.0717
28158W        W31756   7.370   9.626  14.162  0.2994 -0.1015  0.3427
28159W        W31757  15.819   6.231   6.187 -0.0818 -0.0501 -0.2326
28160W        W31758   3.288   9.041   3.920 -0.0133 -0.3367  0.0542
28161W        W31759   1.228   2.564   5.168 -0.1114 -0.1469 -0.1937
28162W        W31760   0.298  11.753   2.591 -0.1489 -0.2441  0.0709
28163W        W31761  12.754   7.394   6.778 -0.0024  0.0620  0.0285
28164W        W31762   6.829  14.477   9.354  0.2879 -0.1517 -0.0235
28165W        W31763   4.122   5.959  10.213  0.2410  0.1011  0.2134
28166W        W31764  14.245   0.243  14.239 -0.2875 -0.0056 -0.2841
28167W        W31765  14.619   6.471  15.425 -0.0640  0.1259  0.2520
28168W        W31766   1.767   3.482   0.402 -0.0723  0.1375  0.3048
28169W        W31767  10.751   2.362   7.454  0.1525  0.0458  0.1750
28170W        W31768  11.351  13.102   4.613 -0.1797 -0.0102 -0.0747
28171W        W31769   3.352   7.531  13.063  0.2570  0.0971 -0.3091
28172W        W31770   5.270  10.120  11.352  0.0976  0.0021  0.2428
28173W        W31771  12.218  13.518   7.076 -0.2378 -0.3442  0.1287
28174W        W31772  10.453   4.402   3.479  0.3228 -0.3677 -0.0915
28175W        W31773  16.238   5.232  10.669 -0.0575  0.0133  0.0471
28176W        W31774  15.331   8.960  11.572  0.0609  0.1312 -0.0872
28177W        W31775  11.718   4.174  14.296  0.0313 -0.1490  0.0812
28178W        W31776  12.700   9.935  12.038  0.1634 -0.0752 -0.0795
28179W        W31777  15.367  13.486   7.477 -0.2272  0.2262 -0.3757
28180W        W31778  14.992  14.757  15.695  0.1761 -0.4101  0.0111
28181W        W31779   9.116  15.706  13.919  0.2910 -0.0020 -0.0308
28182W        W31780   2.798   2.642   1.170 -0.2780 -0.1835 -0.1488
28183W        W31781   1.661  12.090   9.140  0.1406 -0.1455 -0.0606
28184W        W31782   0.823  12.192  15.516  0.2529  0.0960  0.0610
28185W        W31783  15.957   7.199  13.491  0.4911 -0.1966 -0.3694
28186W        W31784  12.817   5.932   4.473 -0.1543  0.0317 -0.2267
28187W        W31785  15.778  10.452  16.028  0.1655  0.3001  0.3753
28188W        W31786  13.895   1.709   1.361  0.4182 -0.3784  0.2574
28189W        W31787   8.745  14.567   2.994  0.2788  0.1381 -0.1047
28190W        W31788   1.385   8.515  13.903 -0.3041  0.0610  0.2299
28191W        W31789  10.697  15.405   0.724  0.0189  0.0628 -0.2871
28192W        W31790   7.172  14.558  13.487  0.1595  0.0428  0.1382
28193W        W31791   5.253  13.613   3.519  0.0235 -0.0392 -0.0315
28194W        W31792   2.055   2.700  11.743  0.2742  0.0750 -0.0525
28195W        W31793   6.746  10.016  15.326 -0.2037  0.0174  0.3047
28196W        W31794  10.678  12.040   3.919  0.0383 -0.0647  0.1780
28197W        W31795  15.828   1.366  12.700 -0.1208  0.1153 -0.4004
28198W        W31796   2.019   7.985   3.247  0.1220  0.0982  0.0701
28199W        W31797   8.158  15.296  14.667  0.0789 -0.1778  0.3136
28200W        W31798   7.292   6.782  13.678 -0.0092  0.1343  0.1214
28201W        W31799  15.444   6.436  10.918 -0.0390  0.1015  0.0654
28202W        W31800  12.893   5.311   6.270  0.3605 -0.1541 -0.2113
28203W        W31801   4.699   5.415  12.881  0.2948  0.1077 -0.1382
28204W        W31802   3.873  12.349   7.814 -0.3628  0.3913  0.1391
28205W        W31803   9.734   8.671   7.019  0.2586  0.1013  0.0233
28206W        W31804   4.115  10.728   2.242  0.0204  0.1139  0.2675
28207W        W31805  11.997   2.307   4.697  0.0794  0.1058  0.2181
28208W        W31806   9.000  14.170   5.265 -0.1185 -0.1303  0.0670
28209W        W31807   0.293  10.374   9.664  0.3767  0.1014  0.1978
28210W        W31808   2.506  15.336   5.208  0.3275 -0.4135 -0.0398
28211W        W31809  13.357   8.742  14.873 -0.2855  0.1589  0.2018
28212W        W31810  14.585  10.469   5.861 -0.1449  0.1079  0.2187
28213W        W31811   7.062   4.974   9.642 -0.0988 -0.0054  0.0836
28214W        W31812  12.567  11.249   4.341  0.4237  0.1358  0.1535
28215W        W31813   3.435   6.681   2.210  0.1062  0.2451  0.0042
28216W        W31814   0.203  13.730  14.410 -0.1449 -0.1201  0.1716
28217W        W31815   2.313   4.677   2.602 -0.0300  0.0961 -0.0683
28218W        W31816   8.928  10.586   2.161  0.3294  0.0134  0.2579
28219W        W31817   0.251  13.894   4.703 -0.0797  0.1934  0.0619
28220W        W31818   9.980  15.379  10.717 -0.1253 -0.1936 -0.1658
28221W        W31819   2.893   4.200   4.769  0.1495 -0.1765  0.3865
28222W        W31820  13.415  13.431   5.379  0.2087  0.1651  0.0282
28223W        W31821  14.279  14.335   9.631  0.0157  0.0313  0.0099
28224W        W31822   3.215  13.862   7.903 -0.0420  0.1433  0.0038
28225W        W31823  10.941   7.365  10.812  0.0704 -0.0424  0.0850
28226W        W31824  10.471  11.510   0.971  0.1589  0.2602  0.3500
28227W        W31825   9.551  10.669   0.382 -0.1100 -0.0875  0.0243
28228W        W31826   3.755   2.569  12.180 -0.0777  0.1659 -0.1951
28229W        W31827   2.338  10.272  12.881  0.0457  0.2262 -0.2285
28230W        W31828   4.888   5.348   5.315  0.0162  0.0747  0.0154
28231W        W31829   8.604   0.827  10.901  0.1550 -0.1048 -0.2194
28232W        W31830  11.223   0.105   0.181 -0.2375  0.2333 -0.0921
28233W        W31831   5.048   0.828   2.050  0.0997  0.0531  0.2381
28234W        W31832  11.022   9.198   9.681  0.1879 -0.1979 -0.1289
28235W        W31833   4.282   0.577   8.623  0.0869  0.2012 -0.0738
28236W        W31834   5.554  12.445   3.474 -0.1665 -0.1547 -0.0432
28237W        W31835   5.833   5.095   3.608 -0.0415 -0.1938  0.3899
28238W        W31836  13.174  12.524  13.708  0.1280 -0.3880 -0.1915
28239W        W31837  11.707   8.745   9.065 -0.0130  0.0567  0.0963
28240W        W31838  12.358   3.687  15.825 -0.1007 -0.0893  0.2586
28241W        W31839   6.240  15.530   6.024  0.1454  0.4368  0.3667
28242W        W31840  12.444  10.175   4.150 -0.1147 -0.3292  0.0519
28243W        W31841  11.235   1.724   4.524 -0.0198 -0.0731 -0.1001
28244W        W31842   2.502   6.577  12.955 -0.0668  0.0242  0.2607
28245W        W31843   8.132   8.800   6.555 -0.1379 -0.2066 -0.1023
28246W        W31844  14.060   4.014   7.588 -0.2002 -0.3188  0.2076
28247W        W31845  12.009  15.106   3.984 -0.2450 -0.0855 -0.0737
28248W        W31846  10.149   2.162   8.625 -0.0215  0.2291  0.1263
28249W        W31847   2.132  10.505  13.621 -0.1467  0.2508  0.2717
28250W        W31848   7.756   9.508   2.549  0.2398 -0.2085 -0.0736
28251W        W31849   2.896   4.927   7.642 -0.0942  0.0265  0.0760
28252W        W31850   5.663   9.300   0.464  0.0291 -0.1316  0.1468
28253W        W31851   8.909   0.607   5.749 -0.0235  0.1323  0.3470
28254W        W31852   4.951  15.088   6.105 -0.3124 -0.1114  0.5384
28255W        W31853   4.998   2.645   8.651  0.1898 -0.0662  0.0128
28256W        W31854  15.288   3.350  15.746  0.1414  0.2462 -0.0378
28257W        W31855   9.220   0.117  11.346  0.2960  0.1784 -0.0109
28258W        W31856   4.133   0.861   1.584  0.2217 -0.1051 -0.0459
28259W        W31857  11.778   8.486  10.980  0.3596  0.2735 -0.2095
28260W        W31858   7.964   4.197  11.025 -0.1274  0.2481 -0.0154
28261W        W31859  14.009  13.044   2.684 -0.0519  0.1155  0.0957
28262W        W31860   3.257  13.670  12.442  0.1305  0.0058 -0.1347
28263W        W31861   2.004  10.418   7.259 -0.0563  0.1925  0.1953
28264W        W31862  10.532   3.504   4.700  0.0905 -0.1271 -0.0046
28265W        W31863  14.570   6.387  13.203 -0.1298 -0.1692  0.0767
28266W        W31864   3.798   3.911   2.637  0.1524 -0.0887  0.3136
28267W        W31865   2.129   1.709  14.861  0.0561 -0.2138  0.1119
28268W        W31866  15.871   8.482   8.699 -0.0944  0.3730 -0.0681
28269W        W31867   8.348   4.874   0.251 -0.1181 -0.1779 -0.3208
28270W        W31868   8.366   2.305   1.528  0.2942 -0.0484 -0.2284
28271W        W31869  10.413   4.059  11.480 -0.2595  0.1875  0.3257
28272W        W31870   4.265  11.370  10.957 -0.1229 -0.0377 -0.1586
28273W        W31871   1.725  15.145  14.262  0.2962  0.0680 -0.0803
28274W        W31872  10.620   1.459  11.062  0.1236 -0.0263 -0.2251
28275W        W31873   1.910   0.003   0.229  0.5486  0.1850  0.2294
28276W        W31874  15.856   5.228   9.067 -0.0719  0.0519 -0.0160
28277W        W31875   7.893  12.199   3.727 -0.1424 -0.1307  0.3421
28278W        W31876   3.711   3.736   8.228 -0.1485 -0.4705 -0.0769
28279W        W31877  13.815  15.117  11.142 -0.2877  0.0597  0.2887
28280W        W31878   3.057   3.787   8.788 -0.2573  0.0280  0.0165
28281W        W31879   1.599   4.964  13.286 -0.1096  0.0152 -0.1497
28282W        W31880   9.054   9.146  12.674  0.0583  0.0465 -0.0768
28283W        W31881   9.720   1.000   7.905 -0.1540  0.0646 -0.0266
28284W        W31882   3.046   4.938   1.755 -0.1943 -0.1505 -0.2900
28285W        W31883  14.504   1.035   9.036 -0.0041 -0.0065  0.0712
28286W        W31884   9.686  15.470   8.480  0.0163  0.2846 -0.4670
28287W        W31885   0.456   5.355   9.243 -0.1440 -0.0019  0.1615
28288W        W31886   5.763   1.685   0.918  0.1542  0.0358 -0.1195
28289W        W31887   9.560  15.298   7.923 -0.1342 -0.1093 -0.0477
28290W        W31888  14.526  11.620  16.232  0.3248 -0.1982  0.1202
28291W        W31889  11.695   3.720   8.983 -0.0122  0.0347 -0.0008
28292W        W31890   7.903   7.749   3.352 -0.1238  0.3852 -0.3581
28293W        W31891   2.668   1.570   9.836  0.0884  0.1391  0.2112
28294W        W31892   3.601  14.231  14.573  0.1145 -0.1672 -0.1145
28295W        W31893   0.933  14.661  13.390 -0.0005 -0.2665 -0.1412
28296W        W31894  14.136  16.107   4.698  0.1356  0.3531  0.0023
28297W        W31895  10.848   1.877  13.892 -0.2769  0.0083  0.1066
28298W        W31896  11.919   7.347  13.737  0.1376  0.1979  0.1077
28299W        W31897  11.158  12.802   0.582  0.0520  0.2386  0.0725
28300W        W31898  12.733  15.176  12.129 -0.1782  0.1030 -0.2286
28301W        W31899  12.287   9.037  12.327 -0.0541  0.1530  0.1256
28302W        W31900  12.839   4.479   0.880  0.2147  0.3869  0.0709
28303W        W31901  12.607   8.227  12.556 -0.1258  0.1334  0.1407
28304W        W31902   3.346   8.906   0.447 -0.3207  0.1970  0.2372
28305W        W31903  15.637  11.854   9.494  0.2165 -0.2160 -0.0934
28306W        W31904  11.401  15.441  14.302  0.1470  0.1569 -0.0365
28307W        W31905   0.574   6.574  10.080 -0.1080  0.1348 -0.0049
28308W        W31906   2.241   0.596  13.552 -0.0450 -0.3029 -0.2772
28309W        W31907  10.200  10.281   4.262 -0.0222  0.0968  0.0690
28310W        W31908  16.207   9.154   6.070  0.0116  0.0575 -0.1424
28311W        W31909  11.003   6.933   0.951  0.2001  0.2032  0.1493
28312W        W31910   9.667   7.945  12.661 -0.1881  0.0290 -0.0745
28313W        W31911   8.948  14.869   3.573  0.2088 -0.1261 -0.1993
28314W        W31912   2.154  10.033   5.967 -0.0563  0.1862  0.1462
28315W        W31913   5.089  11.787   0.781 -0.0592 -0.0724 -0.1350
28316W        W31914   4.730   9.028   8.630  0.0103  0.1486 -0.3770
28317W        W31915  11.287  15.941  14.268  0.2093  0.0027  0.0531
28318W        W31916  10.634   4.156   1.741 -0.0583  0.1291  0.4796
28319W        W31917  10.892   6.979   8.126  0.0550  0.1613  0.0587
28320W        W31918   7.488   5.591   3.990  0.0320 -0.1824 -0.0312
28321W        W31919  11.729  14.604   7.264 -0.3148 -0.0214  0.0574
28322W        W31920  10.807   7.959   6.672  0.0300 -0.1731  0.2392
28323W        W31921  12.339   1.461  15.862 -0.0653 -0.1374 -0.1053
28324W        W31922   9.589  10.922   6.440 -0.0328  0.0447  0.0296
28325W        W31923   8.415  15.120   3.629 -0.3359 -0.1333 -0.0469
28326W        W31924  15.105  12.337  15.321  0.1314 -0.1678  0.0602
28327W        W31925   5.327  13.953  15.337 -0.2449 -0.0648  0.0342
28328W        W31926   9.651  10.108  15.802  0.0067 -0.0762 -0.0425
28329W        W31927   1.893   1.352   1.045 -0.1882 -0.1349 -0.1127
28330W        W31928  10.722  14.527   6.267 -0.0868  0.0769 -0.0490
28331W        W31929  10.350  15.085  14.559 -0.1984  0.1237  0.0775
28332W        W31930   6.396  10.872  14.768  0.0059 -0.1830 -0.0137
28333W        W31931   2.444   5.523   4.269 -0.1468  0.0512 -0.3674
28334W        W31932   5.019   3.476  13.980 -0.0710 -0.2649  0.1494
28335W        W31933  14.576   2.654  14.447 -0.1199  0.2037 -0.0492
28336W        W31934   5.439  11.339   9.952 -0.2677  0.2643  0.0582
28337W        W31935  14.160  14.265  14.788 -0.0391  0.1712 -0.2391
28338W        W31936   6.535  13.978  10.540 -0.0399 -0.0797 -0.1342
28339W        W31937   3.996  12.579   9.185 -0.0751 -0.1161 -0.1839
28340W        W31938   5.863   9.305  11.777 -0.0737  0.0832 -0.0459
28341W        W31939   9.067  11.831   4.260 -0.0653  0.2169  0.0973
28342W        W31940   2.884   0.595   2.538  0.0762 -0.2261 -0.1200
28343W        W31941   0.300  10.781   3.870 -0.0642 -0.1602 -0.2498
28344W        W31942  10.482   3.713  11.151 -0.0998 -0.0786  0.1246
28345W        W31943   4.387   8.860   6.037  0.3552 -0.1111  0.2241
28346W        W31944  12.121  12.649  14.795  0.2622  0.3020  0.1848
28347W        W31945   7.578   0.559  15.711 -0.0988 -0.0620 -0.2187
28348W        W31946  11.692   9.588   5.320 -0.2859  0.0565 -0.2618
28349W        W31947  10.076  12.721   4.060 -0.0058  0.0999 -0.0801
28350W        W31948  12.766   5.594  15.998  0.1083  0.1080 -0.0794
28351W        W31949  12.257   6.888   2.395 -0.1823  0.0188 -0.0195
28352W        W31950   1.876   2.301   7.211 -0.0128  0.0073 -0.1574
28353W        W31951  10.792   3.290   9.949  0.1186  0.1895 -0.2685
28354W        W31952   4.518  12.185   1.703 -0.1797 -0.2802 -0.2679
28355W        W31953   0.515   9.274   3.408  0.0326 -0.0566  0.0271
28356W        W31954   1.393  12.463   7.014  0.0438 -0.3388 -0.0584
28357W        W31955  10.337  15.141   7.810 -0.0487  0.3973  0.2269
28358W        W31956   0.562   1.013  10.672  0.0325 -0.1046  0.0805
28359W        W31957   6.564  13.984  15.583  0.3016 -0.1540 -0.0490
28360W        W31958  15.260  15.365  11.226 -0.0135 -0.0139  0.3338
28361W        W31959  12.609  15.350   1.527 -0.0121 -0.0243  0.4927
28362W        W31960   4.299   9.584  10.835 -0.3437  0.0752 -0.0085
28363W        W31961  12.253  10.856   3.451 -0.1098  0.2003 -0.0574
28364W        W31962   1.452   0.942  14.730  0.1788 -0.4394  0.0571
28365W        W31963   8.990  14.387  15.951 -0.0236 -0.1390 -0.1864
28366W        W31964   6.946   2.389  13.226  0.1463 -0.0579 -0.0718
28367W        W31965  10.350   6.714  14.836 -0.1424 -0.2325 -0.2205
28368W        W31966   8.539   2.081  12.542  0.2055  0.1548 -0.7048
28369W        W31967   4.862   4.220   8.153  0.0142 -0.1632 -0.0545
28370W        W31968   8.202   6.192  12.750  0.2109  0.2080  0.1322
28371W        W31969   3.737  14.952  11.417  0.0209  0.3076  0.1393
28372W        W31970   6.431  14.977   8.095  0.0310 -0.0413  0.0398
28373W        W31971  15.278   0.817   4.546  0.3568  0.0440 -0.1044
28374W        W31972   4.462   1.363  11.011  0.3260  0.2899  0.1352
28375W        W31973   9.271   0.475   8.839  0.1255  0.3998  0.0651
28376W        W31974  16.340   6.992   8.146 -0.0776 -0.5002  0.3412
28377W        W31975   5.567   5.233  10.646  0.2798 -0.0837  0.0109
28378W        W31976  13.363  13.857   5.073  0.0367  0.2960 -0.2172
28379W        W31977  15.654   5.249  15.206 -0.1311  0.0804  0.1155
28380W        W31978   7.075   4.883   6.903 -0.1644  0.1550  0.1509
28381W        W31979  14.937   3.312  14.564 -0.2689 -0.0404  0.0700
28382W        W31980   2.939  14.365   4.994 -0.0852  0.7248 -0.0776
28383W        W31981   0.867   0.195  10.170 -0.2484 -0.2004 -0.2488
28384W        W31982   8.738   9.014   9.684 -0.1459 -0.0779  0.0939
28385W        W31983   4.532   7.477  14.013 -0.3296 -0.2895 -0.1573
28386W        W31984  14.882   2.975   5.723 -0.0153  0.1623  0.0916
28387W        W31985   3.592   9.992  13.671 -0.3391 -0.2811  0.2572
28388W        W31986  13.070   2.718   4.130  0.0096  0.1959 -0.1080
28389W        W31987  15.628   1.186  15.116 -0.1149 -0.0236 -0.1150
28390W        W31988  10.754  15.879  10.825 -0.0790 -0.1706 -0.1573
28391W        W31989  16.210  15.396  15.976  0.2773 -0.0506  0.0031
28392W        W31990   2.477   2.716  13.021 -0.1674  0.1339  0.0171
28393W        W31991   8.968  16.011   4.226 -0.1235  0.0844  0.0418
28394W        W31992   8.615   7.211  11.153  0.1178 -0.0837  0.1094
28395W        W31993   1.593   8.053  10.498 -0.1525  0.1024  0.1192
28396W        W31994   9.628  11.178   2.402 -0.1767 -0.0821 -0.0884
28397W        W31995   9.601   1.417  12.669  0.2202  0.3462 -0.3189
28398W        W31996   3.430   3.192  15.993 -0.1186  0.0288 -0.1947
28399W        W31997   3.209  13.637   1.531  0.0879  0.3982 -0.0433
28400W        W31998   8.116   8.575   6.082  0.1524  0.2360 -0.2341
28401W        W31999   4.860   0.354   7.153  0.0984  0.1834 -0.1382
28402W        W32000  14.800   5.156  14.358  0.0637 -0.1194 -0.1003
28403W        W32001   3.068   2.183  14.624 -0.1946 -0.0714  0.0409
28404W        W32002   5.658  14.956  11.516  0.1825  0.1019  0.0670
28405W        W32003   8.902   6.561   8.022  0.1077 -0.1520 -0.0851
28406W        W32004  14.519   7.417  10.951  0.3353 -0.0689  0.0878
28407W        W32005   8.390  13.671   5.757  0.2072  0.3190 -0.1243
28408W        W32006  12.835   9.634  11.618  0.0848  0.0323  0.1048
28409W        W32007  16.088  13.886   7.068 -0.0594 -0.0530 -0.1995
28410W        W32008   1.402   4.899   5.881 -0.0971 -0.2031  0.2658
28411W        W32009   1.684   5.399  10.591  0.0243  0.0370 -0.1803
28412W        W32010   7.078   1.413  11.132  0.0317 -0.2732  0.1491
28413W        W32011   8.560   6.667   7.226  0.1896 -0.1362 -0.0209
28414W        W32012   8.479   7.109   3.968  0.2718  0.0163 -0.1526
28415W        W32013   5.289   2.570  14.094  0.2031 -0.4071 -0.0511
28416W        W32014   4.389  15.616   0.436 -0.2271 -0.1326 -0.1790
28417W        W32015   6.684   1.787  11.205 -0.1821  0.0705  0.0946
28418W        W32016   0.094  13.274  13.332 -0.0936  0.1744  0.3383
28419W        W32017  13.057   7.909  11.165  0.2282 -0.0803 -0.0885
28420W        W32018   4.277  12.451   4.114  0.1400 -0.1156  0.0469
28421W        W32019   5.742   4.399  11.301 -0.0322 -0.1318  0.1283
28422W        W32020  14.193  10.588   0.557  0.2624 -0.1065  0.1070
28423W        W32021   1.479   4.706  11.826  0.4083  0.2826 -0.5725
28424W        W32022  12.659  12.774  12.567 -0.1740 -0.1426  0.1063
28425W        W32023  11.240   8.893   8.362 -0.0830  0.3910 -0.0785
28426W        W32024  10.109   8.576  16.240 -0.0095 -0.1219  0.1954
28427W        W32025   4.076  15.387   0.054  0.1893  0.0781 -0.1128
28428W        W32026   8.479  15.169  10.111 -0.2469  0.1725  0.1284
28429W        W32027  15.551  12.273  14.330 -0.1112  0.3089  0.2181
28430W        W32028   7.681   1.329  16.266 -0.1511 -0.1595  0.0018
28431W        W32029   2.129   4.119   4.214 -0.0161  0.0587  0.2160
28432W        W32030   0.174   5.818  16.382 -0.0453 -0.0033  0.3236
28433W        W32031   7.233   3.884   3.437  0.2015 -0.0941 -0.2161
28434W        W32032   9.097   2.987  13.477  0.1553 -0.2217  0.1774
28435W        W32033  10.564   1.044   5.473  0.1193  0.0508  0.1480
28436W        W32034   6.135   9.153   0.996  0.2606  0.1769 -0.0427
28437W        W32035  10.521   3.493   2.468 -0.1203  0.2265  0.0839
28438W        W32036   4.168   6.997  10.076 -0.0923  0.0529  0.2737
28439W        W32037  10.516   3.575   3.019 -0.0707 -0.2093  0.0121
28440W        W32038   3.663   2.473   9.930  0.0632  0.0173  0.3262
28441W        W32039  14.807   6.892   0.935  0.0603 -0.0916 -0.1958
28442W        W32040   6.795  14.832  16.043 -0.1506 -0.1791  0.3003
28443W        W32041   9.044   7.860   7.442 -0.0206  0.0035 -0.1632
28444W        W32042  10.792   4.465   8.183 -0.0667  0.0467 -0.3028
28445W        W32043  14.590  13.357  14.763 -0.0851 -0.1703  0.0708
28446W        W32044   1.865   0.344   4.079  0.4203 -0.1092 -0.0728
28447W        W32045  12.741  12.081   3.890  0.2150 -0.1886 -0.0959
28448W        W32046  14.896   1.791  13.220  0.2705  0.1549  0.0570
28449W        W32047  11.436   1.407   5.431 -0.0790 -0.0049  0.0414
28450W        W32048  15.799   3.979  15.356  0.0614  0.1161  0.3753
28451W        W32049   2.029  13.421  15.362 -0.1087  0.0936  0.0402
28452W        W32050  12.357   8.593   5.895  0.1951  0.0580 -0.0557
28453W        W32051   3.538   0.079   0.634  0.1365 -0.1235  0.1923
28454W        W32052  13.296   0.141   8.107 -0.0727  0.1718 -0.0620
28455W        W32053  13.591   9.370   4.069  0.2102 -0.0145  0.1721
28456W        W32054   9.074   5.781   1.218  0.0840 -0.0487  0.0485
28457W        W32055   3.164   4.485  14.379  0.0169  0.1992  0.1419
28458W        W32056   9.426   3.832   0.759 -0.2297  0.0098  0.2205
28459W        W32057  12.157   8.749  14.158 -0.3255  0.0297 -0.4533
28460W        W32058   2.542   5.179   3.940 -0.1263  0.2185 -0.1177
28461W        W32059   4.345  14.276  15.551 -0.0482  0.1083  0.1491
28462W        W32060   3.366  11.289   0.116 -0.0072  0.1189 -0.3818
28463W        W32061  13.064   9.399   6.828 -0.1419 -0.2156 -0.1955
28464W        W32062   8.282  13.689  15.222  0.1044  0.1977  0.0459
28465W        W32063   1.261  10.495  15.190 -0.1809  0.1340 -0.1662
28466W        W32064  11.512   5.083  13.992  0.1519 -0.0659 -0.0444
28467W        W32065   3.822  16.345   2.664  0.0878  0.0845  0.1034
28468W        W32066  12.802   4.347   7.210 -0.2362 -0.1410  0.3266
28469W        W32067  10.196  11.128  11.994 -0.0517 -0.2531  0.3679
28470W        W32068   6.521   6.672  14.327  0.0267 -0.0960  0.0536
28471W        W32069   7.939  10.305   5.829  0.1001 -0.0028  0.2771
28472W        W32070   6.794  15.539  15.340 -0.1269  0.0632 -0.0173
28473W        W32071   7.152  15.709   5.046 -0.0143  0.1940 -0.4428
28474W        W32072   2.670  12.162  13.845 -0.0499 -0.2910 -0.3117
28475W        W32073   8.993   8.639   5.441  0.1890  0.0043  0.0429
28476W        W32074   8.429   6.144   0.384 -0.1205 -0.0915  0.0628
28477W        W32075   2.754  15.121  11.167 -0.0082  0.2309  0.2659
28478W        W32076   7.606   6.957   8.142 -0.0967  0.0368 -0.1820
28479W        W32077   3.270   7.794   4.638 -0.1434  0.0991 -0.0780
28480W        W32078   8.964  14.779   0.046  0.3052  0.1591 -0.1412
28481W        W32079   0.768  10.828   3.529 -0.0557 -0.1874 -0.2451
28482W        W32080  16.279  13.332   3.931 -0.1346 -0.1280 -0.2164
28483W        W32081  11.823  14.551  16.244 -0.2167 -0.2639 -0.1224
28484W        W32082   8.366  10.874   2.773 -0.0439 -0.0167 -0.2164
28485W        W32083   1.009   8.413  16.004 -0.0596  0.2525 -0.1886
28486W        W32084  16.221   6.288   5.739  0.0487  0.1908  0.1963
28487W        W32085  11.590   2.994  10.077 -0.3840  0.0645  0.1467
28488W        W32086  16.075   5.903   6.991  0.4071  0.2872  0.2002
28489W        W32087  12.468   4.476  16.267 -0.1535 -0.2001  0.1692
28490W        W32088  13.004  16.247   4.744  0.4193  0.2048 -0.0834
28491W        W32089   5.000  11.252   1.414 -0.0001 -0.2140  0.0340
28492W        W32090  13.184  16.165  13.339  0.1367 -0.3786 -0.1356
28493W        W32091   0.560  13.407   9.073  0.3214  0.0729 -0.0536
28494W        W32092  14.319  12.329   5.697 -0.1695 -0.2267  0.1847
28495W        W32093   2.455   4.452   9.990 -0.0844  0.0430 -0.0142
28496W        W32094   6.630   7.085  10.040 -0.2127 -0.1230  0.1916
28497W        W32095   5.161   5.457  13.843  0.1885  0.1495 -0.1215
28498W        W32096   8.130   0.485  11.187 -0.3344 -0.2627 -0.1844
28499W        W32097   2.204  10.981  15.047 -0.2205 -0.1992  0.0712
28500W        W32098  14.461   9.862   2.925 -0.1209  0.0675 -0.0569
28501W        W32099   1.715   8.506   9.843 -0.0741  0.1100 -0.3080
28502W        W32100  15.799   4.718  12.943  0.0972 -0.0915 -0.0821
28503W        W32101   5.942   7.745   9.091 -0.3795 -0.0652  0.2905
28504W        W32102  14.365  11.992  10.389 -0.3175  0.4337 -0.0151
28505W        W32103  10.560   2.960   2.486  0.0673 -0.2039  0.1245
28506W        W32104   5.062   4.511   9.999  0.0982 -0.2546 -0.0261
28507W        W32105   5.086  15.555   2.834  0.0266  0.2318  0.1940
28508W        W32106   8.570   9.803   7.482 -0.0208 -0.0364 -0.1301
28509W        W32107   1.987   1.828   4.612 -0.1229 -0.2462  0.0152
28510W        W32108  10.934  13.153   0.231  0.0648  0.1090 -0.1556
28511W        W32109   3.022   4.370  13.856 -0.4302 -0.1714 -0.0225
28512W        W32110  12.413  11.702   0.011  0.0294  0.0852  0.0119
28513W        W32111  13.692   6.188   3.782  0.1634 -0.0351 -0.1324
28514W        W32112   1.497  16.139  12.344 -0.0763 -0.1616 -0.0773
28515W        W32113  12.553  14.334   8.223  0.0214 -0.1758  0.0026
28516W        W32114   3.055   0.231  10.135 -0.0697  0.1667 -0.0452
28517W        W32115   0.665  13.753   6.854  0.0860  0.3390 -0.1889
28518W        W32116  12.494   4.227  15.805  0.1106  0.2068 -0.2455
28519W        W32117  15.721   4.992   1.032  0.0192 -0.0968  0.0916
28520W        W32118  12.261   4.241   6.503  0.0693 -0.0789  0.2645
28521W        W32119   4.384  16.062   4.575 -0.2788 -0.2444 -0.1525
28522W        W32120   2.954   8.230  16.358 -0.0090  0.0487  0.0517
28523W        W32121  11.814   3.490   9.800  0.1213  0.1119  0.2666
28524W        W32122  14.823   9.391   9.829  0.2764 -0.2306  0.0047
28525W        W32123   2.860  15.245   2.694 -0.0220 -0.1616 -0.1378
28526W        W32124   3.054   8.640   7.916 -0.0995  0.3394 -0.1245
28527W        W32125   3.185   6.123   7.687 -0.0289  0.1410 -0.3681
28528W        W32126   1.312   3.263  11.738  0.0036  0.0462 -0.1502
28529W        W32127  10.842  12.256  15.634 -0.2971  0.1899  0.0578
28530W        W32128  15.054   0.587  15.767  0.3246  0.1470  0.0901
28531W        W32129   4.233   5.612   4.407 -0.1540 -0.2392  0.0916
28532W        W32130   2.575   0.534  12.751 -0.0683  0.3040  0.2781
28533W        W32131   5.502  10.888  12.321  0.0148 -0.2198  0.2494
28534W        W32132  12.087  15.889   0.904  0.5696  0.2896 -0.0133
28535W        W32133   5.433   5.194   0.850  0.0552  0.1903  0.4936
28536W        W32134   3.406   1.926   5.651  0.2684 -0.2673 -0.0394
28537W        W32135   2.283   1.222   1.448  0.4351  0.1137  0.6815
28538W        W32136   1.918   9.177   2.064  0.0095 -0.0451  0.0584
28539W        W32137   3.466   5.984  12.387  0.1752 -0.1385 -0.0118
28540W        W32138   1.886   1.734   9.173  0.0150 -0.0317  0.1002
28541W        W32139   9.980  13.697   3.148  0.1139  0.1326 -0.2781
28542W        W32140   0.617  10.306   1.474 -0.4072 -0.1025 -0.0367
28543W        W32141  14.774  12.942   3.303 -0.0161 -0.0824  0.0400
28544W        W32142  15.621   3.002   3.226 -0.2773 -0.1873  0.1171
28545W        W32143  14.051   8.020   9.105 -0.3586 -0.0945 -0.0648
28546W        W32144   5.930   0.420  11.667  0.0949  0.0686  0.0177
28547W        W32145  16.239   3.759   6.580  0.1298 -0.0409  0.1480
28548W        W32146   8.632  10.492  11.897 -0.1556 -0.1108 -0.0080
28549W        W32147   4.226  12.647  11.365 -0.0078 -0.0034  0.0342
28550W        W32148  16.254  10.690  15.232 -0.0511  0.2408  0.2168
28551W        W32149   7.980   1.268  12.974  0.0069  0.0942  0.3281
28552W        W32150   7.693   2.870   9.544  0.2677  0.2083 -0.2234
28553W        W32151  12.260   4.417   3.877 -0.1543 -0.0110  0.1142
28554W        W32152   9.606   9.447   8.873  0.2310 -0.0956 -0.1917
28555W        W32153   0.547   5.474  16.282 -0.0270 -0.0910 -0.1518
28556W        W32154   9.257   5.089  14.591 -0.1067  0.0036 -0.1399
28557W        W32155   4.165   8.278  10.884  0.0099 -0.2338 -0.0920
28558W        W32156   9.337   7.629  10.644  0.0387  0.0407 -0.0309
28559W        W32157  15.051   0.468   8.037  0.0070  0.2594 -0.3982
28560W        W32158   1.969  12.355  11.680  0.0344 -0.2968  0.2229
28561W        W32159   1.542  15.551  13.629  0.1641  0.1923 -0.0887
28562W        W32160  12.595   9.787   3.917  0.1435 -0.0765 -0.0793
28563W        W32161  12.787  14.998   0.188  0.3036 -0.1104  0.1163
28564W        W32162   2.035   2.356  16.230 -0.2337  0.2941  0.5424
28565W        W32163   2.369   1.497  12.856 -0.1836 -0.0116 -0.0948
28566W        W32164  11.522   5.858  10.132  0.0229  0.0452 -0.1139
28567W        W32165  10.263   8.928   6.132  0.0664 -0.3570  0.1469
28568W        W32166   4.900  10.103   4.443  0.3954  0.1280 -0.1170
28569W        W32167  14.698   0.264   0.335 -0.1401 -0.1341 -0.0419
28570W        W32168   8.181   7.842  13.973  0.0046 -0.0117  0.1372
28571W        W32169  12.583   0.440  11.247 -0.0401 -0.0765  0.1389
28572W        W32170   8.484  11.886  12.287 -0.1402 -0.1029 -0.2313
28573W        W32171   1.980   9.627   6.519  0.1475 -0.0326  0.0424
28574W        W32172  13.983  15.156   2.326 -0.1608 -0.0051  0.1054
28575W        W32173   8.803  14.771   5.797 -0.2987  0.1812 -0.3029
28576W        W32174  10.960   0.786  14.593 -0.1557  0.0478 -0.2371
28577W        W32175   9.862  10.879   5.162 -0.0681 -0.2618 -0.1954
28578W        W32176  13.354   6.588   3.496 -0.1171  0.1201  0.2332
28579W        W32177   2.687  13.119   1.267  0.0848 -0.0210  0.2597
28580W        W32178  14.691   0.358   7.718  0.1920  0.1541 -0.1857
28581W        W32179   7.032   7.699  12.769 -0.0811 -0.1093 -0.2343
28582W        W32180   1.456  11.507  15.387  0.0289 -0.2743 -0.0493
28583W        W32181   9.696   4.153   9.483  0.0076 -0.1682  0.2497
28584W        W32182   5.464  12.341   1.930  0.0283  0.0986 -0.1239
28585W        W32183  15.055   2.062  15.699  0.0885  0.0216  0.1833
28586W        W32184   1.774  16.000  10.387  0.0196 -0.2612  0.1212
28587W        W32185  12.508   0.963   9.901 -0.0717  0.3005 -0.0073
28588W        W32186   8.624   2.266   5.836  0.5261  0.1130  0.0486
28589W        W32187   3.148  11.829  13.379 -0.0472 -0.0519  0.0301
28590W        W32188  15.625   1.012   5.824 -0.1288  0.0121  0.1470
28591W        W32189  13.138   2.915  15.242  0.4924 -0.1206 -0.2318
28592W        W32190  15.539   2.039  16.340 -0.0739 -0.0719 -0.2580
28593W        W32191   5.461  12.777   2.586 -0.1451  0.1547 -0.0435
28594W        W32192   3.383   3.969   4.760 -0.1332  0.1516 -0.0596
28595W        W32193   3.484  15.042   8.449  0.4425  0.0954  0.1130
28596W        W32194   5.034   8.920  12.715  0.0139 -0.1078  0.1428
28597W        W32195  10.150   3.748   0.313  0.1240  0.1402 -0.0417
28598W        W32196  10.997  11.840   7.384  0.0065  0.2098  0.2638
28599W        W32197   1.185   2.023   4.506  0.0003  0.1060  0.1368
28600W        W32198   7.005  16.209   2.265 -0.4614 -0.1686  0.1716
28601W        W32199   4.540   1.551  13.049  0.1748 -0.2488 -0.0177
28602W        W32200  14.193   4.311   0.894  0.1888 -0.1933  0.1786
28603W        W32201  15.461   0.866   0.778  0.1119  0.2031 -0.1957
28604W        W32202   9.320  14.557   7.574  0.2116  0.1343  0.0768
28605W        W32203   9.811   9.206   7.520 -0.0923 -0.1784  0.1157
28606W        W32204   1.965   9.654   7.854 -0.2656 -0.0179  0.0566
28607W        W32205   6.566   8.258   5.996  0.0894 -0.1868 -0.0460
28608W        W32206   8.834   6.685   5.328 -0.0070  0.4663 -0.1187
28609W        W32207   2.856   9.970   2.523  0.2733  0.0223  0.1578
28610W        W32208   2.136   4.498   9.308  0.1368  0.3403 -0.1275
28611W        W32209  11.847   2.872  12.053 -0.0728 -0.2798 -0.3017
28612W        W32210  15.188   1.879   6.902  0.0283 -0.2376 -0.4561
28613W        W32211  10.027   9.127  12.982  0.0794  0.2157  0.1147
28614W        W32212   0.446  15.058   1.616 -0.1270  0.0220 -0.1358
28615W        W32213   7.714  13.301  13.362  0.0190  0.0928  0.1736
28616W        W32214   6.115  10.722  14.054  0.3016  0.0058  0.1218
28617W        W32215  12.408   7.487   8.817  0.2670  0.3199 -0.0154
28618W        W32216  15.627  13.071   7.676  0.0278  0.1146 -0.0947
28619W        W32217   6.952  12.025   2.958  0.1417  0.0323 -0.1812
28620W        W32218  15.774   3.341  13.218  0.0189  0.1980 -0.1766
28621W        W32219  13.847  14.945   1.475 -0.0869 -0.0441 -0.1242
28622W        W32220  12.818  10.791   5.960  0.0409 -0.2183 -0.1403
28623W        W32221  11.396   8.429   9.774  0.0659  0.2160 -0.1664
28624W        W32222  14.629  11.320  11.877  0.4832 -0.1462  0.0342
28625W        W32223   2.694   2.009   7.059  0.0577 -0.0642 -0.0058
28626W        W32224   4.232   8.037   5.880 -0.2004 -0.0370 -0.0401
28627W        W32225   4.639   0.094   3.673 -0.0324  0.2050  0.1573
28628W        W32226  11.393  13.492  11.472  0.1231  0.0322 -0.2039
28629W        W32227   3.539  10.142   9.016 -0.0916 -0.0366  0.1735
28630W        W32228  14.234   6.794  10.317 -0.0510  0.0379 -0.0473
28631W        W32229   7.399  11.443  13.028 -0.0693 -0.4360  0.0262
28632W        W32230   2.777  12.685   8.769  0.1099  0.2160 -0.1430
28633W        W32231   9.729   0.475   2.726 -0.0062  0.0717  0.1414
28634W        W32232  14.186   2.866  14.220 -0.0682 -0.1824  0.0313
28635W        W32233   8.540  11.293   3.407 -0.3887  0.1075  0.2805
28636W        W32234   7.768  11.017   0.683  0.1223  0.2463  0.2575
28637W        W32235   0.380   3.586  15.275 -0.1514  0.1161 -0.0002
28638W        W32236   2.720   7.686   5.206 -0.0405  0.4078 -0.0590
28639W        W32237   2.543  14.391   3.358 -0.2136  0.1652  0.1257
28640W        W32238  12.067   7.666   7.897 -0.0233 -0.0995 -0.1444
28641W        W32239  11.831   7.698  11.461 -0.0739 -0.3251 -0.1832
28642W        W32240  13.254   4.743  10.176 -0.0263  0.3041 -0.1622
28643W        W32241   0.889   8.576  11.413 -0.2841  0.0066 -0.1972
28644W        W32242  11.335   9.073  12.809  0.0036 -0.2078  0.0723
28645W        W32243  10.881   0.022  15.070  0.3007  0.2210  0.0702
28646W        W32244  12.621   2.266   9.176 -0.1388 -0.0375  0.0391
28647W        W32245   1.065   8.189  11.907  0.1060  0.0490 -0.0919
28648W        W32246   5.560   8.086   9.079 -0.2419  0.2441  0.1774
28649W        W32247  11.249   7.648  12.478  0.0415  0.1822 -0.0406
28650W        W32248   7.053   7.470  15.118 -0.2296 -0.1390  0.0175
28651W        W32249   6.610   8.357   8.067  0.2949  0.1474  0.1990
28652W        W32250   5.037   5.041  15.073 -0.0766 -0.3362  0.1228
28653W        W32251   1.958  12.888  11.430  0.4487 -0.0162  0.1671
28654W        W32252   6.135  15.674   6.939  0.0253 -0.0552 -0.1544
28655W        W32253  14.060  11.176   7.020 -0.0537  0.2488  0.0446
28656W        W32254  13.041  15.071  10.673  0.2378  0.0036  0.1771
28657W        W32255  12.206   4.079  13.368  0.3742 -0.1653 -0.1395
28658W        W32256  12.906   3.556  13.277  0.2038 -0.2714 -0.0138
28659W        W32257  15.092   8.992  11.084 -0.0926 -0.3344  0.2481
28660W        W32258  16.050   0.822  14.856 -0.2481  0.0005 -0.1562
28661W        W32259   9.298  14.886  10.888 -0.0771 -0.0562 -0.3445
28662W        W32260  15.265  13.044   7.264 -0.1309  0.1102 -0.1566
28663W        W32261   4.474   6.749   1.444  0.0266 -0.1229  0.4332
28664W        W32262   5.595   8.480   9.799  0.0725 -0.1031 -0.0629
28665W        W32263   8.897   2.924  10.484 -0.2625  0.1187  0.0085
28666W        W32264  15.369   9.960   1.126 -0.3276  0.0508 -0.0123
28667W        W32265   6.038  15.483   9.764  0.0895 -0.0197  0.4686
28668W        W32266   8.867   1.080   0.155  0.0583  0.1322 -0.0734
28669W        W32267   5.516  13.887   0.721  0.0451  0.4314 -0.3454
28670W        W32268   4.252   8.188   6.531 -0.1244 -0.0081  0.0057
28671W        W32269  12.385   3.560  11.786  0.0003 -0.2180 -0.0094
28672W        W32270   3.860  12.206  14.571  0.0798 -0.2719  0.1729
28673W        W32271   5.275  10.428   3.393  0.4203 -0.1282  0.0997
28674W        W32272   9.802  15.891   1.117  0.1769  0.2430 -0.0783
28675W        W32273  11.827   6.730   6.756  0.1215  0.0052 -0.0980
28676W        W32274   2.810   2.457   5.945 -0.0647  0.0347 -0.1590
28677W        W32275  12.190   1.328  10.161 -0.1585  0.0350  0.1809
28678W        W32276  14.039   5.341   4.211 -0.0396  0.0524 -0.0321
28679W        W32277  16.242   6.864   2.875  0.2635  0.2575  0.0671
28680W        W32278   1.294   2.848   3.230  0.2868 -0.3786  0.1118
28681W        W32279   3.091  16.243  10.498 -0.1418  0.1337  0.2779
28682W        W32280   2.511   2.669   8.369 -0.2326  0.0150  0.1034
28683W        W32281   1.828   7.550   5.138  0.1538 -0.0537 -0.2714
28684W        W32282   9.862   7.524  14.060 -0.2208  0.1420  0.0307
28685W        W32283  12.617  12.015  15.569 -0.0613  0.0058  0.2448
28686W        W32284  11.780   2.494  15.129  0.0836 -0.0151 -0.1909
28687W        W32285   2.040  12.962   3.489 -0.0910  0.1549 -0.0897
28688W        W32286   9.907  13.182   9.802  0.0491  0.0254 -0.0057
28689W        W32287  12.204  11.343   9.092  0.0837 -0.0620 -0.1508
28690W        W32288   6.283  10.745  10.965 -0.3051  0.0419  0.0503
28691W        W32289   4.152  11.223   2.540  0.1251  0.0765 -0.1231
28692W        W32290  11.022   0.781   6.035 -0.1576 -0.1640 -0.1505
28693W        W32291   2.880   3.685   3.474  0.2179 -0.1562 -0.1767
28694W        W32292   0.192   4.225  11.356 -0.1247 -0.2686  0.0303
28695W        W32293  12.652   8.668  11.359  0.0421 -0.3112 -0.0095
28696W        W32294   9.095   4.580  12.191  0.1471 -0.0110 -0.1124
28697W        W32295   6.102   2.187   0.955  0.1532  0.3226  0.2982
28698W        W32296   9.910   9.250   4.115 -0.2113 -0.0682  0.0175
28699W        W32297  13.906   1.876   4.118  0.0172 -0.2259  0.0141
28700W        W32298  13.640  15.877   1.724  0.2411 -0.0210 -0.2169
28701W        W32299   9.972   3.920   9.091  0.3529  0.0734  0.2952
28702W        W32300  14.360  16.376   8.672  0.2078 -0.0294 -0.1761
28703W        W32301  15.211   7.921  14.944  0.1031 -0.0318  0.1470
28704W        W32302  15.746   9.966   6.894  0.0287 -0.0730  0.0303
28705W        W32303   6.149   5.340  12.883  0.2214 -0.1648  0.1091
28706W        W32304  14.252  11.816   1.955 -0.0616  0.2401 -0.0653
28707W        W32305  13.881   0.114   8.853 -0.3333  0.0460 -0.2789
28708W        W32306   0.528   7.180   9.919 -0.0449  0.0872  0.2101
28709W        W32307   2.753  14.215   3.814 -0.1642  0.1921  0.0478
28710W        W32308  12.980   9.650  12.901 -0.1659 -0.0221  0.1737
28711W        W32309   2.402   1.789   2.477 -0.0941  0.1243 -0.0249
28712W        W32310  11.627   9.450  12.647  0.0569  0.3435 -0.0994
28713W        W32311   3.688  10.673  10.949  0.1916  0.2211 -0.1646
28714W        W32312  12.262   9.428  15.987 -0.1682  0.2129 -0.4031
28715W        W32313  13.689   9.379  15.895 -0.0394  0.2964 -0.0548
28716W        W32314   5.209  11.097  13.977 -0.0306 -0.1585  0.1122
28717W        W32315  15.237  12.313  10.630 -0.0110 -0.0112 -0.2442
28718W        W32316   9.387  11.611   7.186  0.6330  0.0627 -0.3558
28719W        W32317   2.035   8.805  10.188  0.0458 -0.3434 -0.1238
28720W        W32318  13.346   0.419   5.953  0.2073 -0.0331 -0.0934
28721W        W32319   5.469  12.004  11.943  0.1500  0.2340  0.1496
28722W        W32320   9.752  10.216  12.094 -0.0848 -0.2605 -0.0510
28723W        W32321   7.387   4.680  16.174 -0.1603 -0.1744  0.2058
28724W        W32322   4.368   7.039   1.838  0.0368 -0.0768 -0.0243
28725W        W32323   6.135  11.531   5.353  0.0137  0.0908  0.0502
28726W        W32324   8.000   5.823   5.733  0.2033 -0.1344  0.1803
28727W        W32325  13.928   0.352   8.378  0.0719  0.0020  0.1783
28728W        W32326   0.918   8.121  15.266  0.2063  0.0775  0.1157
28729W        W32327  10.022   3.737  10.182 -0.0588 -0.1872 -0.2530
28730W        W32328   7.427   2.349   2.302  0.3058 -0.0096 -0.2001
28731W        W32329   1.974   7.206   6.473 -0.1483 -0.0074  0.0232
28732W        W32330  15.000  11.786   7.549  0.2676 -0.2635 -0.0002
28733W        W32331   8.212  11.870   8.060 -0.1663  0.3460 -0.3962
28734W        W32332   4.910   7.803   2.387  0.0562  0.0220  0.0588
28735W        W32333   1.132  11.221  10.091 -0.1320 -0.0789  0.0555
28736W        W32334  14.493   9.670  16.322  0.1901  0.2094  0.0034
28737W        W32335  11.679   8.505   1.917 -0.1318  0.0145  0.1626
28738W        W32336  13.999  11.413   4.028  0.1258 -0.0607 -0.0914
28739W        W32337  15.773   8.105  14.995  0.2500 -0.0656  0.0474
28740W        W32338   0.150   6.700  11.496 -0.3654  0.0075 -0.1578
28741W        W32339   8.982   8.648   8.631  0.1184 -0.0292 -0.3153
28742W        W32340   1.914   7.641  11.500 -0.4865 -0.3468  0.1243
28743W        W32341   9.122   3.508  11.198 -0.1534 -0.0478  0.0220
28744W        W32342   5.858  16.369   9.216 -0.4134  0.3037 -0.0181
28745W        W32343  15.827   9.405  11.398 -0.0448  0.0313 -0.2666
28746W        W32344   0.537   0.757  16.388 -0.3064 -0.1892  0.1200
28747W        W32345   0.097   7.951  14.358 -0.0827  0.2593 -0.1544
28748W        W32346   3.134   1.044   4.415  0.0396  0.1094 -0.0289
28749W        W32347   2.243  10.190   2.049  0.2585 -0.0626  0.0966
28750W        W32348  16.219  14.661   9.162 -0.2724  0.4053  0.0721
28751W        W32349  13.140   6.036  10.556  0.2296  0.0028  0.0508
28752W        W32350   6.939   5.338   9.113  0.2137 -0.1540 -0.3541
28753W        W32351   8.127  10.482  14.937  0.0011  0.5719 -0.0367
28754W        W32352  10.227   6.010  10.932  0.0098  0.3725 -0.0075
28755W        W32353  12.677   8.314   1.008  0.3244  0.2032  0.0053
28756W        W32354   9.539   5.288   6.474 -0.2170 -0.0664 -0.0968
28757W        W32355   7.019  12.672  10.980 -0.1213 -0.0287 -0.0468
28758W        W32356   9.844   6.747  16.010  0.0346 -0.1135  0.1882
28759W        W32357  13.681  16.185   7.912 -0.1412  0.0124 -0.2264
28760W        W32358   6.976  12.358   4.563 -0.1117  0.0797  0.4793
28761W        W32359   5.740  11.094   8.056  0.0705  0.1524  0.2103
28762W        W32360   1.284  15.862   3.225 -0.0768 -0.0781 -0.1051
28763W        W32361  13.922  13.443  11.389 -0.0455  0.0876  0.0650
28764W        W32362   3.989  13.485   7.510 -0.0943 -0.0546  0.1805
28765W        W32363   8.236  13.712  12.500  0.0246  0.3515  0.1066
28766W        W32364  14.558  12.552  10.426  0.0303 -0.3300  0.1230
28767W        W32365   1.656  10.466  11.013 -0.2944  0.1138 -0.1641
28768W        W32366  10.562   1.599  10.361  0.0373  0.0111  0.0840
28769W        W32367   9.706   8.027   4.185  0.0047 -0.4973  0.0084
28770W        W32368   6.653   8.067  14.325 -0.1843 -0.1147  0.0034
28771W        W32369   8.868   8.080   8.302 -0.0082 -0.2902  0.0998
28772W        W32370   7.806   9.665  16.175 -0.1561  0.0023  0.1299
28773W        W32371   9.909   8.936  12.515  0.0462 -0.1271  0.0268
28774W        W32372   9.878   8.540   7.552  0.1333 -0.2145 -0.0660
28775W        W32373   2.779  11.350   9.128 -0.0345 -0.1521 -0.0621
28776W        W32374   3.954  14.895  13.091  0.1644 -0.1424 -0.1566
28777W        W32375  10.431  14.673   8.901  0.0737 -0.0406  0.5104
28778W        W32376  15.727   8.307  16.378  0.0157  0.1842 -0.3101
28779W        W32377   3.927   5.807   8.880  0.1165 -0.3185 -0.1414
28780W        W32378   9.850   2.982  11.403 -0.3408  0.3722 -0.2665
28781W        W32379   3.633   3.944  15.240 -0.1479 -0.1463 -0.0368
28782W        W32380   1.188   6.052  12.553  0.1193 -0.2572  0.0244
28783W        W32381  10.080   4.122  10.607 -0.0103 -0.3043  0.0095
28784W        W32382  15.000   7.104   8.732  0.2636 -0.0983  0.1240
28785W        W32383   1.906   0.226   7.019 -0.1425 -0.3742  0.3339
28786W        W32384   9.681  13.779   7.489 -0.3030 -0.1145 -0.2003
28787W        W32385   4.850   4.518   3.856  0.1820 -0.2752 -0.2695
28788W        W32386   8.414   8.041   5.621  0.0799  0.0810  0.1172
28789W        W32387   3.770   1.743   9.242 -0.0422 -0.0849 -0.3818
28790W        W32388   0.072   0.708   6.469 -0.0644 -0.0774 -0.0745
28791W        W32389   1.947   2.860   5.757  0.0089  0.2590  0.0476
28792W        W32390   0.058   2.424  10.504 -0.0268  0.1542 -0.1301
28793W        W32391  10.734  10.131   2.282  0.0548 -0.0880 -0.0482
28794W        W32392   8.003  12.958   9.608 -0.0615 -0.3424  0.1728
28795W        W32393  10.678   9.492  14.991 -0.1013  0.1156  0.2034
28796W        W32394   6.090   5.816   0.034 -0.3292  0.0775 -0.1844
28797W        W32395  10.943  14.646   8.640  0.0540  0.0324  0.0425
28798W        W32396  11.245   4.536  12.880 -0.0629 -0.2834  0.0609
28799W        W32397   7.449  11.717  12.467  0.4173  0.2868 -0.4905
28800W        W32398   2.237  15.388   1.038 -0.1785  0.1928  0.3352
28801W        W32399  11.160   5.899  11.452  0.1837  0.1255 -0.1027
28802W        W32400  16.128   1.148  10.540 -0.0100 -0.0420 -0.0769
28803W        W32401   4.469   2.342  14.656  0.3166  0.0758  0.2582
28804W        W32402   0.156   9.911   9.182  0.0793  0.1188 -0.1064
28805W        W32403  10.405   4.941  15.319 -0.3291  0.1227  0.1208
28806W        W32404  13.590   3.468  12.237  0.2337  0.0507 -0.2235
28807W        W32405   7.101   3.466  11.022 -0.0230 -0.0695 -0.0125
28808W        W32406   6.659   7.692  15.606 -0.2569  0.0128  0.2339
28809W        W32407   1.810   8.585  12.365 -0.3599  0.1960  0.1493
28810W        W32408   0.535   3.836  12.293  0.4106 -0.0675 -0.2475
28811W        W32409  13.431   8.411  15.212  0.1335  0.0303 -0.2232
28812W        W32410   9.467  15.446   5.972  0.2667 -0.1900 -0.0542
28813W        W32411   2.095   4.418   5.012 -0.0091  0.3025  0.1991
28814W        W32412  13.484   1.944   1.129 -0.2451 -0.2757 -0.2479
28815W        W32413  12.665   0.045  12.134 -0.0206 -0.2969  0.0010
28816W        W32414   6.794   1.959  15.759 -0.1021  0.1538  0.0063
28817W        W32415   8.672  14.509   0.988  0.2762  0.2133  0.1255
28818W        W32416  11.834   5.411  15.255  0.0293 -0.0516  0.1245
28819W        W32417  15.814  14.052   1.271 -0.2584  0.0893  0.0249
28820W        W32418   0.109   2.811   5.625 -0.2003 -0.2227 -0.2670
28821W        W32419   0.796   6.789   4.799 -0.2471  0.0719  0.1016
28822W        W32420   0.889   4.858   5.065 -0.2093  0.2615 -0.0220
28823W        W32421   7.963   7.038   1.708  0.1905  0.1406  0.2155
28824W        W32422   4.134   0.823   2.796  0.4038 -0.1937  0.1600
28825W        W32423   0.524   7.632   5.831 -0.0699 -0.0010  0.0221
28826W        W32424   8.866   3.424   2.198 -0.2359 -0.2272 -0.2562
28827W        W32425  11.826  10.925   7.299 -0.4364 -0.0776  0.0659
28828W        W32426  11.549   5.325   3.611  0.0338  0.1272  0.0812
28829W        W32427  11.417   2.278   5.168  0.2341 -0.2381  0.0812
28830W        W32428   4.575  11.606  14.464 -0.1499  0.1092  0.0227
28831W        W32429  14.998   6.198  14.447 -0.2322 -0.2163  0.3622
28832W        W32430   7.009  15.536   3.436 -0.1395 -0.1448  0.1637
28833W        W32431   0.274  14.923   4.429 -0.1325 -0.1611  0.1706
28834W        W32432   0.943   6.665   2.639  0.0909  0.1518  0.0194
28835W        W32433   9.632  13.844  14.932  0.2964  0.1415 -0.0659
28836W        W32434  11.160   7.304   9.701  0.3192 -0.1592 -0.0882
28837W        W32435  13.162   6.494   9.292  0.0083  0.1702 -0.2734
28838W        W32436  14.364   9.230   0.094  0.2603  0.0444 -0.1016
28839W        W32437   0.352   3.709  12.724  0.3839 -0.0535 -0.1348
28840W        W32438   0.448   6.278   5.047 -0.3086  0.1431 -0.0249
28841W        W32439  15.372  16.217  12.112  0.3372 -0.1310 -0.2912
28842W        W32440  16.013  10.572   8.228  0.1146  0.1743 -0.4000
28843W        W32441   3.259   7.604  10.581  0.3378  0.0115  0.0132
28844W        W32442  13.152   3.050   9.433  0.1452  0.2921  0.0891
28845W        W32443   9.239   4.503   9.491 -0.3096  0.0217 -0.2577
28846W        W32444   7.084  14.590   3.421  0.3497 -0.0021  0.0976
28847W        W32445   5.609   3.061  14.648 -0.1378  0.0369 -0.3329
28848W        W32446   5.639   7.515   1.290 -0.1387  0.4416  0.1889
28849W        W32447  11.867   5.998  11.469 -0.1026 -0.1919  0.1172
28850W        W32448  10.390   5.048   8.382  0.1241 -0.3438 -0.0780
28851W        W32449  14.894   8.145  16.033 -0.1222  0.1523 -0.0805
28852W        W32450   7.598   4.857   6.674 -0.0386 -0.0887  0.0383
28853W        W32451  11.393  14.972   9.215 -0.0106  0.4112  0.0289
28854W        W32452   8.173   3.051   4.753  0.0044 -0.1618 -0.1054
28855W        W32453   2.451   6.261   0.732 -0.4102 -0.0460  0.1552
28856W        W32454  13.960  15.995   8.773  0.0644 -0.2087 -0.0574
28857W        W32455  10.127   8.963   9.327 -0.1017 -0.1888 -0.0119
28858W        W32456   8.029  15.079  10.307 -0.1271  0.1290  0.1866
28859W        W32457   7.974  13.210   0.706  0.2663 -0.2949 -0.0596
28860W        W32458  14.515  14.730  12.930 -0.1101 -0.0297  0.1480
28861W        W32459   2.326   7.680  15.940 -0.2684  0.0345 -0.0735
28862W        W32460   4.805  13.562   0.208 -0.1957  0.3071  0.1489
28863W        W32461   4.986  11.136   9.798  0.2808 -0.0656 -0.1694
28864W        W32462   3.196  12.604  14.427 -0.0956 -0.0928  0.0002
28865W        W32463   4.067   8.470   6.053 -0.0526 -0.0367  0.2961
28866W        W32464   8.289   7.039  11.749  0.0205  0.0435  0.2416
28867W        W32465  10.647  10.281  10.513 -0.3484 -0.1351 -0.0344
28868W        W32466  12.377  14.072   6.179  0.1092  0.3700  0.1199
28869W        W32467  15.919  12.523  12.533  0.1144  0.1280 -0.0448
28870W        W32468   1.108   1.609   8.363 -0.0149 -0.5816  0.1785
28871W        W32469   6.220   5.511   1.858  0.1867 -0.0255  0.1485
28872W        W32470   7.005  11.644  10.155 -0.0798  0.2179 -0.0258
28873W        W32471  12.240  13.749   4.141 -0.0967  0.3915  0.1739
28874W        W32472  12.470  12.191  12.553  0.2566  0.1412 -0.2677
28875W        W32473   8.391   2.764   3.514 -0.0791  0.0117  0.3454
28876W        W32474  11.761   3.737  15.113  0.1593  0.0762  0.0454
28877W        W32475   8.448   6.404  10.369 -0.0052  0.0006 -0.1385
28878W        W32476   2.128   4.852   2.168  0.0781 -0.0725 -0.1607
28879W        W32477  11.978  10.948   5.132  0.4615  0.1669  0.0918
28880W        W32478   5.910   5.658  15.927 -0.0730  0.0378  0.1300
28881W        W32479  10.025   2.716   1.365 -0.0650  0.3054 -0.3035
28882W        W32480  12.117   6.111   0.906 -0.1552 -0.1884  0.0221
28883W        W32481  15.794  11.922  13.086 -0.2252 -0.0263 -0.0822
28884W        W32482   1.253   8.351   6.671  0.0428  0.0660  0.3490
28885W        W32483   6.431   0.466   7.755 -0.2150 -0.2725  0.0951
28886W        W32484  12.699   5.928   3.904 -0.1446 -0.1300 -0.0624
28887W        W32485  13.829  11.165  11.479 -0.0036  0.1166 -0.0524
28888W        W32486   6.153   2.853  13.932 -0.2786  0.0911 -0.0160
28889W        W32487   9.159  15.404   4.772 -0.1746  0.2179  0.0874
28890W        W32488  12.127  15.042   7.772 -0.3289 -0.1857 -0.2385
28891W        W32489   7.296   1.143   3.358 -0.0410  0.0040  0.1707
28892W        W32490  12.088   4.977  15.474  0.0593 -0.0870 -0.0707
28893W        W32491  12.536   4.496   6.185  0.1348  0.3530 -0.1838
28894W        W32492   1.358   1.941   6.477 -0.1529  0.0454  0.3376
28895W        W32493   5.180  15.549   8.120  0.2347 -0.0492  0.1589
28896W        W32494   8.720   2.357   8.178 -0.0627 -0.0295  0.2445
28897W        W32495   6.904   9.110   7.736 -0.1303 -0.1421 -0.0975
28898W        W32496  10.645   6.232   0.519 -0.1040  0.1213  0.0968
28899W        W32497   5.351  12.110   6.367  0.2182 -0.2784  0.1105
28900W        W32498   2.298   7.443   3.505  0.0183  0.1106  0.0991
28901W        W32499   3.195   5.020   8.597 -0.1215 -0.3119 -0.2223
28902W        W32500  13.062   0.744   9.528  0.0853 -0.1374  0.0138
28903W        W32501  15.707   0.084   7.088  0.0954 -0.0081 -0.0033
28904W        W32502   5.376  12.387   9.182  0.2560 -0.0338 -0.2510
28905W        W32503  14.932  13.215  14.031  0.2870  0.0123 -0.1397
28906W        W32504  11.543  10.167  14.990  0.3563 -0.0117 -0.0011
28907W        W32505  11.331   0.106   6.758  0.1481  0.0593 -0.2009
28908W        W32506  10.170   5.639  13.728  0.0053  0.1515  0.0969
28909W        W32507   5.099  11.590  10.704  0.0410 -0.1297  0.1783
28910W        W32508   7.789   5.192   7.364 -0.1510 -0.0558  0.0371
28911W        W32509   2.431  14.017   7.118  0.0295  0.1306 -0.0673
28912W        W32510   4.636   1.994  12.203  0.4332  0.2984  0.1619
28913W        W32511   4.638   8.908   3.718 -0.0182  0.1151 -0.1149
28914W        W32512   8.285   6.019   3.595 -0.1648 -0.1252 -0.0342
28915W        W32513   3.131   3.783  15.212  0.0203 -0.0286 -0.0634
28916W        W32514   4.590  11.707   5.710  0.2839  0.1275 -0.0627
28917W        W32515  13.527  13.737  11.682  0.2069 -0.2077  0.0976
28918W        W32516   7.344   1.556   9.850 -0.2205  0.2460  0.3048
28919W        W32517   8.769   8.706  16.073 -0.1380 -0.0341 -0.0359
28920W        W32518   7.001   8.882  13.442  0.2290 -0.0146 -0.0081
28921W        W32519  12.599   9.394   9.785  0.4367 -0.0517 -0.0237
28922W        W32520  13.876   0.551  10.721 -0.0455 -0.1781  0.3189
28923W        W32521  10.661   2.352  13.712 -0.3052  0.0675 -0.0231
28924W        W32522   7.828   3.207   6.450 -0.0183 -0.0290  0.0557
28925W        W32523   5.119   4.493   6.703 -0.0328  0.0415 -0.1489
28926W        W32524   5.294   9.012  14.753  0.3671 -0.1801 -0.0574
28927W        W32525   2.944   8.606   5.161  0.2429  0.4424 -0.0598
28928W        W32526   7.815   0.496   2.287 -0.3259 -0.0219 -0.1286
28929W        W32527   6.648   1.719   2.998  0.1020 -0.1429 -0.1369
28930W        W32528  11.088   6.229   5.208 -0.1740  0.0366  0.4231
28931W        W32529   8.427  10.657   2.055 -0.0396 -0.0180  0.1515
28932W        W32530  12.522   6.829  16.280  0.0972 -0.2679 -0.1443
28933W        W32531   6.700   0.497   0.012  0.0803  0.0556  0.3424
28934W        W32532   4.317   4.774  13.563 -0.1098 -0.1011  0.3016
28935W        W32533   3.122   0.885   2.854 -0.2595  0.1586  0.2231
28936W        W32534  11.098  13.730   2.134 -0.3444 -0.1905 -0.0730
28937W        W32535  14.577   7.235   2.871  0.1204  0.0656  0.0824
28938W        W32536   5.024   9.214   1.083 -0.0770 -0.0412 -0.2116
28939W        W32537   5.018   1.155  14.243  0.3822 -0.1722 -0.0343
28940W        W32538  14.008   9.093   1.934  0.0427 -0.0815 -0.1076
28941W        W32539  10.879   4.561   1.799 -0.1392 -0.4980 -0.1365
28942W        W32540   1.648   0.606   6.086 -0.1283 -0.2032 -0.1873
28943W        W32541   9.661   5.522   2.920 -0.0008  0.1692  0.0323
28944W        W32542  10.982   3.770   9.862  0.1799 -0.2328 -0.1459
28945W        W32543   9.917  15.044   6.880 -0.1420 -0.0619  0.0371
28946W        W32544   9.288   7.303  15.418  0.2381  0.1375 -0.2283
28947W        W32545   9.601  11.248   0.137 -0.1381  0.2494 -0.2252
28948W        W32546   1.392   1.067   0.556  0.0713 -0.0309 -0.2726
28949W        W32547  13.338   0.601   9.123  0.0378  0.2815  0.0523
28950W        W32548   4.726   8.551   8.196  0.2173 -0.1314 -0.0942
28951W        W32549  11.653   2.027  15.063  0.0422  0.0229 -0.0660
28952W        W32550   7.283   8.685   0.522  0.2904 -0.0705 -0.2428
28953W        W32551   5.152   4.068  13.980  0.2665 -0.1804 -0.1593
28954W        W32552  15.502  12.733  10.528  0.1328  0.3122  0.1121
28955W        W32553   1.072   2.958  13.359 -0.1944  0.1976  0.0220
28956W        W32554  11.981   9.252   4.742 -0.2469 -0.0881 -0.0063
28957W        W32555   3.134   9.969   0.793 -0.1586  0.1757  0.1729
28958W        W32556  10.866  13.719  10.787  0.0269 -0.1699  0.0362
28959W        W32557  16.378  14.629  14.813 -0.1844 -0.0303  0.0105
28960W        W32558   8.252   0.410   6.551  0.1429 -0.0661 -0.1277
28961W        W32559  14.259   6.314   1.607  0.1150 -0.1337 -0.0586
28962W        W32560  10.847  14.810   3.375  0.0026 -0.2730 -0.1525
28963W        W32561   1.639  15.921   2.152 -0.5660 -0.1731  0.2046
28964W        W32562   2.583   5.260  13.247 -0.0693 -0.0614 -0.0791
28965W        W32563  11.297   5.270   9.897 -0.1478  0.0469  0.4442
28966W        W32564  10.387   1.795  11.836 -0.1381 -0.0972  0.0172
28967W        W32565   4.464   4.288  15.545 -0.0057  0.2575 -0.0078
28968W        W32566   1.174   1.818   1.001  0.1113  0.3208 -0.0158
28969W        W32567  15.095   7.790  12.892  0.1280  0.0047 -0.1326
28970W        W32568   5.840   2.009  14.330 -0.1590 -0.0215 -0.1745
28971W        W32569   1.876   6.803   8.737  0.1175  0.0238  0.0889
28972W        W32570   4.220   3.588   2.652 -0.0067  0.3030 -0.2685
28973W        W32571   4.534   3.670   2.274  0.0548 -0.3444  0.2436
28974W        W32572  12.771   1.340   6.186 -0.1399  0.1301  0.1140
28975W        W32573  13.053  11.837   3.601 -0.0306  0.0085  0.1333
28976W        W32574  11.094   5.574   4.630 -0.1100  0.0547 -0.0675
28977W        W32575   3.223   4.069   3.460  0.2232  0.1155 -0.2245
28978W        W32576   1.461  15.835  15.969  0.0895  0.0566 -0.2885
28979W        W32577   9.734  13.421  16.327  0.0193 -0.3763  0.1814
28980W        W32578   6.777   0.192  15.093  0.0824 -0.0636  0.2083
28981W        W32579   0.525   8.942  12.709 -0.0714 -0.1512  0.1300
28982W        W32580  13.978  12.144  12.968  0.1172  0.0106 -0.0374
28983W        W32581  14.846   8.521   8.070  0.1045  0.1589 -0.0852
28984W        W32582  12.956   1.160   2.102 -0.0595 -0.1547 -0.1089
28985W        W32583   9.134   4.043  13.255 -0.1209 -0.0315  0.0646
28986W        W32584  15.134  13.869   9.880 -0.1098  0.2709  0.0205
28987W        W32585   5.241   6.741   3.716  0.1718  0.1304  0.3510
28988W        W32586  12.242  15.559   1.808 -0.2169  0.2566  0.0663
28989W        W32587  12.596  14.869   9.435 -0.2928 -0.4205  0.0401
28990W        W32588  11.968   3.972   9.916 -0.1637  0.1102  0.2570
28991W        W32589   6.621   6.861   5.709  0.1578 -0.1008  0.1283
28992W        W32590  15.823   3.283  14.464  0.0850 -0.3461  0.0578
28993W        W32591   6.247   4.036   1.533 -0.0254  0.1298  0.0943
28994W        W32592   1.498   9.267   3.247 -0.2036 -0.0283 -0.0250
28995W        W32593   6.774   3.798  15.076 -0.0128 -0.1056  0.1794
28996W        W32594  15.348   4.672   1.154 -0.0254  0.2280 -0.0218
28997W        W32595   4.461  14.658  13.086  0.2431 -0.0047 -0.0123
28998W        W32596   8.575   2.284  10.899  0.1549 -0.1899 -0.2995
28999W        W32597   7.334  14.488   2.635 -0.1968  0.2510 -0.2250
29000W        W32598   2.058   0.071  11.785 -0.0435  0.3710 -0.0183
29001W        W32599  13.539   2.524   4.772  0.0658 -0.0677  0.0354
29002W        W32600   6.636  10.823   7.798 -0.0731 -0.0133 -0.0703
29003W        W32601   0.016  15.370   0.988 -0.1867 -0.2671  0.2735
29004W        W32602  12.023   0.847   2.167  0.1565  0.1833 -0.1343
29005W        W32603  10.904  15.832   6.115 -0.1125  0.3002 -0.2131
29006W        W32604   0.669   6.881  13.803 -0.1624  0.0080  0.0633
29007W        W32605  11.359  12.929   7.141 -0.0357 -0.0882 -0.0274
29008W        W32606   9.158  11.549  13.692 -0.1361 -0.0719  0.1882
29009W        W32607   1.859  14.874  13.277  0.0303  0.0444 -0.0481
29010W        W32608   8.172   9.763   5.122 -0.2586  0.2854 -0.2930
29011W        W32609  13.330  11.444   6.403 -0.0415  0.1076 -0.0649
29012W        W32610  12.644   3.070  10.153  0.0927  0.0655 -0.0443
29013W        W32611   5.748  12.891   3.020 -0.1773 -0.1971  0.1240
29014W        W32612   5.988  10.906   3.217 -0.1960 -0.0365  0.0746
29015W        W32613   8.013   7.353   8.137 -0.0869 -0.1113  0.1451
29016W        W32614  11.791   5.419   5.732 -0.2618  0.0928 -0.0663
29017W        W32615   9.488   7.772   2.540 -0.1187 -0.1277  0.0038
29018W        W32616  13.172   0.070   1.124 -0.2547 -0.2120  0.0687
29019W        W32617   1.694   3.853   9.775  0.0314 -0.0328  0.2596
29020W        W32618  14.404  10.129   5.104  0.1142 -0.2533 -0.1194
29021W        W32619   5.754   2.372  10.486  0.0949  0.1407  0.0075
29022W        W32620   3.806   8.314   9.225 -0.3022  0.3019  0.1762
29023W        W32621  10.332  14.331   1.754  0.1193  0.0690  0.1901
29024W        W32622  12.876   6.476   7.081  0.0772  0.1447 -0.0567
29025W        W32623   7.408   8.396  15.357 -0.2562  0.1761  0.2928
29026W        W32624   8.505   2.821   7.985 -0.0250 -0.0846 -0.0236
29027W        W32625  11.512   8.209  12.438 -0.1129  0.1582  0.1191
29028W        W32626  14.828   3.207  11.936 -0.0184  0.0496  0.3700
29029W        W32627   6.969   3.352   8.111  0.0837 -0.1438  0.1503
29030W        W32628  13.963   7.658   8.742  0.0156  0.3830  0.1174
29031W        W32629   9.861   0.091  11.944 -0.0404 -0.3230 -0.2354
29032W        W32630   2.046   1.709   7.684 -0.4324  0.1247  0.0101
29033W        W32631  14.608  15.940  11.717 -0.0757  0.0899  0.0953
29034W        W32632  14.886   3.427   9.811 -0.0427  0.0768 -0.0448
29035W        W32633   4.584   1.973   3.302 -0.1534  0.0568 -0.1508
29036W        W32634  11.930   6.326  14.737  0.1956  0.0471 -0.0331
29037W        W32635   2.162   0.594  11.223  0.2316  0.1409 -0.0182
29038W        W32636   5.416   9.274  10.335  0.0670 -0.2031  0.1261
29039W        W32637   2.642   8.797  12.187  0.0549 -0.1989 -0.0608
29040W        W32638   8.812   0.580   6.582 -0.0861 -0.0356 -0.0089
29041W        W32639  15.997   6.041   2.424 -0.1788  0.2566 -0.1813
29042W        W32640   9.602   0.086   5.463 -0.0807 -0.1108 -0.0498
29043W        W32641  16.380  12.857  15.591 -0.0629  0.0466  0.3227
29044W        W32642   0.737  15.495  15.227  0.0440 -0.2818  0.1620
29045W        W32643  13.974   1.466  14.211 -0.0837 -0.1563 -0.0258
29046W        W32644  12.986   2.725  12.382  0.0825 -0.1322 -0.0560
29047W        W32645   9.868  16.158  12.392 -0.0964  0.3345 -0.1102
29048W        W32646  10.156   4.290   9.698  0.0466  0.2120  0.2990
29049W        W32647  12.940   5.470  11.951 -0.3190  0.4326 -0.5571
29050W        W32648  14.675   8.542   5.501  0.2133 -0.1516 -0.0912
29051W        W32649   7.122  15.710  11.485 -0.0409 -0.0837 -0.0100
29052W        W32650  14.838  10.784  13.207 -0.0174  0.0090 -0.2522
29053W        W32651   1.202   2.795  13.811 -0.1674  0.0517 -0.2463
29054W        W32652   4.442   7.408   0.387 -0.3678  0.0955  0.0569
29055W        W32653   7.432   0.658   3.300 -0.0871  0.0177 -0.0788
29056W        W32654  11.735   6.518   3.053 -0.5303  0.0044  0.1465
29057W        W32655  12.657  11.924   3.095 -0.0253 -0.3490 -0.1018
29058W        W32656  14.680   5.395  15.429  0.1461  0.1867  0.1545
29059W        W32657   9.102  15.944   3.416  0.1704 -0.0342  0.0875
29060W        W32658  13.010   9.516   8.902  0.1484  0.0556 -0.0617
29061W        W32659   3.677  11.316  10.989 -0.3371  0.3415 -0.0007
29062W        W32660  14.552  12.769   7.760  0.0034  0.4081 -0.1274
29063W        W32661  13.425   2.006   6.599 -0.0402 -0.1943  0.1691
29064W        W32662   9.991  10.421   9.801  0.0113  0.2283  0.0659
29065W        W32663  13.858   4.473   9.051  0.1842  0.1929 -0.0869
29066W        W32664   7.173  12.977   9.666 -0.0445  0.0038  0.5793
29067W        W32665   5.951  10.032   3.650  0.1375 -0.0170 -0.0895
29068W        W32666   4.751  14.203  13.695 -0.0680 -0.2432 -0.0294
29069W        W32667  13.714   2.406  14.483 -0.0074  0.1730 -0.0343
29070W        W32668  11.451   9.080   9.920 -0.3511 -0.0941  0.0113
29071W        W32669   2.046   9.845  14.964 -0.0675  0.2471  0.0925
29072W        W32670   8.688   8.019   4.217  0.0060  0.1648 -0.1294
29073W        W32671  11.579  13.851  14.462  0.1046 -0.1813 -0.1650
29074W        W32672   8.433  14.353  11.762 -0.0399  0.2055 -0.0349
29075W        W32673  15.980  12.654  15.415  0.0127  0.2921 -0.0300
29076W        W32674  11.069   1.233  10.246  0.3275  0.1919  0.0366
29077W        W32675   1.410   7.636   3.806  0.3129 -0.0730  0.2466
29078W        W32676   1.209   7.536   6.137 -0.3526 -0.0023 -0.3525
29079W        W32677  16.322   7.316  13.823 -0.1305  0.1648  0.0612
29080W        W32678   1.500  12.678   0.127 -0.1368 -0.2054  0.1383
29081W        W32679  11.041   5.775   5.532 -0.2515  0.3542 -0.0878
29082W        W32680   5.919  14.312   4.104  0.0866 -0.1492 -0.0583
29083W        W32681   6.219  11.751   8.894  0.2428 -0.3548 -0.2157
29084W        W32682  12.686   5.688  10.600 -0.2077 -0.0812 -0.3405
29085W        W32683   9.292   4.803   9.869  0.0816  0.0975 -0.0263
29086W        W32684   0.858  15.810   6.569 -0.0946  0.0500 -0.1058
29087W        W32685  15.472   7.957   4.041 -0.0541 -0.0809  0.1040
29088W        W32686   2.294  13.055   5.983 -0.1761 -0.2689 -0.1242
29089W        W32687  16.214   4.467  15.770 -0.2205 -0.0255 -0.0942
29090W        W32688  14.912   5.545   7.952 -0.0510  0.0413  0.1329
29091W        W32689  15.634   4.028  11.333  0.0811  0.2403 -0.0640
29092W        W32690   0.890   7.325   1.030  0.1992 -0.1861 -0.2092
29093W        W32691  12.318   0.433  10.497  0.1184 -0.0822  0.1541
29094W        W32692  10.064   5.750   9.604  0.3441  0.2800 -0.0123
29095W        W32693   4.325   9.056   5.521 -0.0500  0.1326  0.3084
29096W        W32694   3.248   1.347  11.974  0.0262  0.2559 -0.2181
29097W        W32695   4.550   0.634   9.083  0.1397  0.0156  0.0914
29098W        W32696  16.202  12.605   2.774  0.1867  0.0286 -0.2526
29099W        W32697   9.505   9.747  13.861 -0.1012  0.1287  0.0614
29100W        W32698  11.113  15.103  14.705 -0.1653  0.0123  0.1340
29101W        W32699  12.242   7.381  11.605  0.0545  0.0347  0.3736
29102W        W32700   6.878   2.197   0.425 -0.0739  0.3090  0.1206
29103W        W32701  14.084  15.970  10.964  0.0710  0.1275 -0.2159
29104W        W32702   5.230   3.993   8.479 -0.1471  0.0555  0.2281
29105W        W32703   9.471  11.453   7.693  0.1576  0.2543  0.0012
29106W        W32704  13.260  15.583   2.063  0.0331  0.3390 -0.2793
29107W        W32705   3.245  10.336   7.664 -0.0316  0.0215 -0.0750
29108W        W32706   5.366   1.747   5.530 -0.1089 -0.0071 -0.1503
29109W        W32707   1.758  15.505  10.247  0.0634 -0.0781 -0.0590
29110W        W32708  13.451  15.891   3.549 -0.1098 -0.0027 -0.0037
29111W        W32709   1.882   2.606  15.805  0.0691 -0.0185  0.1961
29112W        W32710  13.634  16.261  13.120 -0.1270  0.2182 -0.0298
29113W        W32711  13.668   3.179   5.965 -0.0300  0.1003  0.0410
29114W        W32712   6.571  11.622   0.941  0.1607 -0.1822 -0.1947
29115W        W32713   3.700   5.097   4.151 -0.3117 -0.1751 -0.0011
29116W        W32714  15.196  13.244   8.608  0.1531  0.0231 -0.0117
29117W        W32715  11.149  15.198  15.558  0.0009 -0.1726  0.1690
29118W        W32716   6.714   3.347   5.615 -0.0629 -0.0655  0.0620
29119W        W32717   2.217   0.632  13.078  0.1185  0.1515  0.0440
29120W        W32718  12.230  14.032   0.646  0.0868 -0.0001  0.0429
29121W        W32719   8.306   5.394  16.233  0.2015  0.0600 -0.0300
29122W        W32720  13.083  14.089   2.877  0.0657 -0.1267 -0.0003
29123W        W32721  14.693   2.309   6.216 -0.2789  0.1348  0.0902
29124W        W32722  16.381   8.055  15.616 -0.1303 -0.1612 -0.0390
29125W        W32723   9.563   4.251  14.794 -0.0182 -0.2427 -0.2192
29126W        W32724  14.282   4.891  15.083 -0.0656  0.0611  0.0925
29127W        W32725   5.658   6.385  14.410 -0.2006  0.0963  0.3064
29128W        W32726   6.572  11.163   1.311 -0.1439  0.0996  0.2272
29129W        W32727   3.161   8.099  14.743  0.0533 -0.0667 -0.1258
29130W        W32728  16.338   6.381   8.080  0.1911  0.0982  0.1866
29131W        W32729   8.074   6.428  12.296  0.2250 -0.1557  0.0904
29132W        W32730   0.437   7.443   0.699 -0.0997 -0.0209 -0.4548
29133W        W32731   3.250  15.528   5.584  0.2735 -0.0216 -0.3495
29134W        W32732   2.667   7.567   9.115  0.3106 -0.0337 -0.1876
29135W        W32733  15.712   4.741   2.593 -0.1497 -0.1976 -0.0718
29136W        W32734  14.392  12.953   2.945  0.2679 -0.1330 -0.1967
29137W        W32735   3.339   6.678   2.808  0.1841 -0.0912  0.2364
29138W        W32736   3.168  15.718  15.747  0.1461 -0.0704  0.1720
29139W        W32737   9.336   3.529   7.447 -0.2024 -0.0352  0.1551
29140W        W32738  12.516   9.797  12.856 -0.1270  0.0506  0.1723
29141W        W32739  11.296   6.738   2.612  0.0332  0.0789 -0.2278
29142W        W32740  11.348   8.284  13.268 -0.0782 -0.0533  0.0202
29143W        W32741  15.546   7.563   7.048 -0.3759 -0.0807  0.1182
29144W        W32742  16.091  14.030   0.383 -0.2622 -0.4626  0.0533
29145W        W32743   8.887   6.939  15.326  0.0975 -0.2976  0.1048
29146W        W32744   3.389   5.688   3.902 -0.1309 -0.2469  0.0356
29147W        W32745  12.738   8.476   8.946 -0.0720 -0.3988  0.2654
29148W        W32746   6.015   8.341  13.803  0.1147 -0.1255 -0.4177
29149W        W32747  11.568   9.425  13.977  0.0097  0.1815 -0.0430
29150W        W32748   8.904   6.663  13.966 -0.1158 -0.2449  0.4087
29151W        W32749   5.540   5.827   0.012  0.3288 -0.3768  0.0143
29152W        W32750   5.425  15.992  10.688  0.1846  0.1906  0.3272
29153W        W32751  14.472   6.988  15.275 -0.2911 -0.1948  0.1759
29154W        W32752  12.146  13.591  10.995 -0.2155 -0.0889  0.0268
29155W        W32753   6.139  15.266   7.859 -0.0670 -0.1039  0.1381
29156W        W32754   0.764  14.228  12.998 -0.1327  0.2017 -0.0091
29157W        W32755  10.319  11.617  12.861  0.0684  0.1826  0.1396
29158W        W32756   3.229   8.217  15.874  0.1460 -0.1762  0.0260
29159W        W32757   2.296   0.109   1.392 -0.2143  0.1091  0.1779
29160W        W32758  11.324   7.489   8.240 -0.2284 -0.1758 -0.1061
29161W        W32759   0.723  13.451   8.608  0.3464  0.3050  0.0608
29162W        W32760  14.331   8.554   2.487  0.0339  0.0586  0.0927
29163W        W32761  11.933   8.113   7.713  0.0131 -0.1071 -0.2046
29164W        W32762   8.047  12.334   5.811 -0.1209 -0.0900 -0.0504
29165W        W32763  13.828   2.532  12.138 -0.2048  0.2323  0.3862
29166W        W32764  15.520   4.825  15.340 -0.0478  0.0871 -0.2068
29167W        W32765   0.196   5.736   7.245  0.1310 -0.0295  0.0424
29168W        W32766  13.699   5.326   0.023 -0.3984 -0.0924  0.1619
29169W        W32767  13.822   2.248   4.387  0.1748 -0.1527  0.2353
29170W        W32768   6.450  13.062   1.608 -0.1644 -0.1207 -0.0978
29171W        W32769   7.726  11.222  14.775 -0.1035  0.3595  0.1718
29172W        W32770  15.471   6.901   4.874 -0.1801  0.0274 -0.1892
29173W        W32771   6.696  16.224  15.449 -0.0119 -0.0251 -0.0053
29174W        W32772   8.535  13.975  16.206  0.0549  0.0391 -0.0397
29175W        W32773   3.522   7.722  13.987 -0.0451  0.2247  0.0991
29176W        W32774  10.521   0.298  14.306  0.2460  0.0942  0.2160
29177W        W32775  13.379  16.231   6.116  0.0819 -0.0780  0.0257
29178W        W32776   7.645  10.455   8.383 -0.0418  0.0181  0.0511
29179W        W32777   9.779  15.701   1.562  0.3395  0.0360 -0.0901
29180W        W32778  11.957   9.548   9.232 -0.0306  0.0015  0.1207
29181W        W32779  12.663  15.128   9.830 -0.3349  0.0404 -0.1658
29182W        W32780   6.868  13.581  12.405  0.1438  0.0215  0.2044
29183W        W32781   4.912   4.647   2.330 -0.1456  0.1667 -0.0041
29184W        W32782   7.307  12.875   5.825  0.0009 -0.1502 -0.2316
29185W        W32783   0.763  12.770  12.225  0.0136  0.4515 -0.0892
29186W        W32784  12.640  12.110  15.003 -0.0411 -0.1274  0.1854
29187W        W32785   7.374   9.794   9.830  0.1209 -0.0538  0.2255
29188W        W32786   1.675   3.292   4.183  0.0399 -0.0713  0.1217
29189W        W32787  13.789   7.843  14.571 -0.2956 -0.2792  0.1911
29190W        W32788   1.350   2.973  14.984  0.0551  0.0931 -0.1404
29191W        W32789   1.603   9.982   5.319 -0.2801 -0.4072  0.2836
29192W        W32790   4.926   4.174  14.693 -0.0303 -0.0120 -0.0214
29193W        W32791  12.011   5.991   8.151 -0.1621 -0.0113  0.4464
29194W        W32792  13.785   0.596   8.942 -0.0709 -0.1846 -0.3043
29195W        W32793   3.328  14.157   2.385 -0.1705  0.0056  0.1674
29196W        W32794   8.899  15.629   1.441 -0.1322  0.2387 -0.0621
29197W        W32795  16.320   1.911  14.454  0.2048  0.0712 -0.0937
29198W        W32796   6.242   3.345   3.448 -0.1801  0.1918  0.2041
29199W        W32797   4.443  12.717   7.263 -0.1182 -0.0672  0.0213
29200W        W32798  15.869   8.664  12.125  0.3009 -0.1825 -0.1113
29201W        W32799   9.895   7.215  16.223 -0.0857  0.1338  0.0804
29202W        W32800   1.067   7.184  10.751 -0.1058 -0.3481 -0.1427
29203W        W32801  14.895  15.737   3.810 -0.0838  0.0094  0.2288
29204W        W32802   7.460   7.850   8.137  0.1701 -0.2164  0.1087
29205W        W32803  15.651  10.014   2.143  0.1366  0.0566  0.0371
29206W        W32804  13.333  12.799   5.122 -0.1234 -0.1232  0.0956
29207W        W32805   8.492   4.269   2.193  0.3018  0.0265  0.1892
29208W        W32806  15.420  11.193  16.042  0.1690  0.2126 -0.1657
29209W        W32807   1.879  12.398  12.536  0.0275  0.1637  0.2070
29210W        W32808   1.151  10.311   6.626 -0.1082 -0.0888 -0.2173
29211W        W32809   2.627  13.099   6.718  0.0053 -0.1127 -0.2062
29212W        W32810  12.227   7.575   5.536 -0.2778  0.0121  0.2701
29213W        W32811   1.136   5.256   6.238  0.0368  0.2112 -0.3322
29214W        W32812   0.076   2.009  10.935  0.1537  0.0253 -0.1223
29215W        W32813   2.475   4.154   9.540 -0.2196  0.1242 -0.0623
29216W        W32814  10.698   8.806   6.472 -0.3812 -0.0416  0.0238
29217W        W32815  12.347  14.543  13.709  0.1508 -0.0560  0.0439
29218W        W32816   0.450   9.821  13.862  0.3366 -0.1115 -0.1854
29219W        W32817  12.770   6.750   0.387 -0.2017 -0.0899 -0.1689
29220W        W32818  13.195   9.718   5.271 -0.0952  0.1155  0.3155
29221W        W32819   8.578  13.679  14.849 -0.1862  0.2100  0.0668
29222W        W32820  13.689   3.971  16.122  0.3035 -0.0247 -0.0656
29223W        W32821  15.826  13.378   7.352  0.1597 -0.1444 -0.3873
29224W        W32822   4.715   4.655   7.128  0.0666 -0.2711 -0.1873
29225W        W32823  13.906   6.623   3.603 -0.1024 -0.5018  0.2637
29226W        W32824   8.662   1.500   3.529  0.0428 -0.1962 -0.2366
29227W        W32825  15.760   9.568   5.337  0.2735 -0.0421 -0.1264
29228W        W32826   1.152   5.595   3.995 -0.0296 -0.0826  0.0108
29229W        W32827  10.089   4.062   4.364  0.3100 -0.2733 -0.0644
29230W        W32828   0.671  13.431   1.711  0.0954 -0.1587 -0.1315
29231W        W32829   8.708   6.069   3.839  0.2621  0.1979 -0.3938
29232W        W32830   6.219  11.359  14.842  0.1005  0.1156  0.3442
29233W        W32831   6.165  12.521   8.243 -0.0668  0.0026  0.4458
29234W        W32832  16.070  11.909  10.871  0.0124  0.3504  0.1857
29235W        W32833  16.199   1.197   8.948  0.0152 -0.1284 -0.0211
29236W        W32834   9.586  11.281   8.167  0.2088 -0.3590 -0.1108
29237W        W32835   8.086   6.330   9.980  0.2753 -0.0632  0.2377
29238W        W32836  14.309  10.231  13.707  0.1931 -0.2136  0.0017
29239W        W32837   9.102   6.001  14.372 -0.1334 -0.0959  0.2030
29240W        W32838  15.035  13.570  16.121  0.0855  0.0076  0.2641
29241W        W32839  12.467   9.138  11.433 -0.3046  0.1965 -0.1944
29242W        W32840  13.289   6.884   7.265  0.3285  0.0029  0.0023
29243W        W32841   4.954   0.765   5.044 -0.0453  0.1516  0.0673
29244W        W32842   9.837   8.374   8.010  0.1801 -0.2548  0.1736
29245W        W32843  10.546  15.217   9.575  0.1883 -0.1994  0.2861
29246W        W32844  14.611   9.100  10.223  0.3450  0.0153  0.1751
29247W        W32845   4.142   4.469  15.891 -0.0647 -0.1843 -0.1392
29248W        W32846  13.380   6.047  14.911 -0.4375 -0.3404  0.1431
29249W        W32847   9.655   9.363  13.328  0.0956  0.1602  0.0017
29250W        W32848  14.463   2.340   8.327 -0.0042  0.2657 -0.0694
29251W        W32849  11.809  10.975  14.321 -0.0095  0.1548 -0.1784
29252W        W32850   9.933   7.584   8.769  0.2536 -0.0661 -0.0333
29253W        W32851   8.188  14.693   6.935 -0.2865 -0.0001 -0.0833
29254W        W32852  14.386   1.639   7.673 -0.2516  0.3402  0.1053
29255W        W32853  12.127   6.065  10.161  0.4162 -0.1392  0.2667
29256W        W32854   1.204   8.748   4.539  0.0020  0.0802  0.0027
29257W        W32855   6.593  12.137  12.170  0.0116 -0.1278  0.4614
29258W        W32856   0.849  14.704   8.993 -0.0737  0.1625 -0.1732
29259W        W32857   2.572   6.129  10.652  0.0491  0.1663 -0.0391
29260W        W32858  11.450   1.770  15.655 -0.3393 -0.1408 -0.0640
29261W        W32859   5.153   3.248  12.414 -0.2167 -0.2924 -0.2090
29262W        W32860   6.261  14.238  16.312 -0.0507  0.1969 -0.0525
29263W        W32861  10.117   0.781   5.445 -0.2479 -0.1560  0.1290
29264W        W32862  13.083   1.895   7.703 -0.1310 -0.3192 -0.0486
29265W        W32863  13.203   3.841  15.591 -0.2072  0.0896  0.0072
29266W        W32864   2.947   1.277   1.052  0.0503 -0.1848 -0.2468
29267W        W32865   6.340  10.289  14.410  0.0587  0.2253 -0.1479
29268W        W32866   4.671   9.323  11.719  0.0777 -0.1175 -0.0592
29269W        W32867   5.066  11.075   9.314  0.1542 -0.3453  0.1940
29270W        W32868  15.102  13.523   0.894 -0.1337  0.0293 -0.1795
29271W        W32869  13.120  15.109  13.375  0.1770  0.1698  0.0178
29272W        W32870   2.995   5.484   3.637  0.0004 -0.1860  0.2382
29273W        W32871  11.497   1.199   8.037  0.1788 -0.5689  0.2391
29274W        W32872   0.950   0.317   5.494 -0.0490 -0.0984 -0.2183
29275W        W32873  13.733   5.079   1.279 -0.2283 -0.1984  0.0610
29276W        W32874   9.698  15.267   7.275  0.0267 -0.2431  0.1698
29277W        W32875  11.496   9.156   5.165 -0.0456 -0.2163  0.0376
29278W        W32876  14.131  11.881   6.509  0.0972 -0.1412 -0.2849
29279W        W32877   5.899   0.005   1.658  0.1332 -0.0730  0.2119
29280W        W32878   4.477   5.358  15.629  0.1791  0.1200 -0.0341
29281W        W32879   6.142   2.697   2.717 -0.4573 -0.1818  0.0605
29282W        W32880   3.035   8.155  14.191 -0.0919 -0.1124  0.4457
29283W        W32881   0.981   2.274  14.510  0.0108 -0.1492 -0.3150
29284W        W32882  11.991  13.409   1.294 -0.2069  0.0349 -0.2089
29285W        W32883   9.620  14.204  10.257  0.1481  0.1050 -0.1302
29286W        W32884   0.075   3.315  11.256 -0.1799 -0.0450  0.2208
29287W        W32885  10.265   4.981   4.704 -0.1026 -0.1407 -0.1730
29288W        W32886   8.835  12.898   9.546 -0.2254 -0.1568 -0.2640
29289W        W32887   5.886   8.085  15.347 -0.1806  0.2073  0.0512
29290W        W32888  10.189   2.539  12.348  0.1800  0.3138  0.2846
29291W        W32889   4.783  14.077  15.307  0.0439 -0.0789  0.1707
29292W        W32890   7.750   0.321   3.987 -0.2539 -0.1156  0.0993
29293W        W32891   6.665  11.589  15.991 -0.2567 -0.2674 -0.1044
29294W        W32892   3.111   1.169   8.122  0.1562 -0.1065  0.0328
29295W        W32893   5.709  14.408  13.668  0.0179  0.0613  0.2212
29296W        W32894  14.144  14.612   3.509 -0.0227 -0.1501  0.0825
29297W        W32895   3.433   8.807   0.979  0.2149  0.0879 -0.0298
29298W        W32896   6.428   4.064   6.854 -0.0446 -0.1538  0.0333
29299W        W32897   9.780   4.718   4.051 -0.1087 -0.0476 -0.2672
29300W        W32898  14.849   5.744  10.016  0.0277  0.0975 -0.2589
29301W        W32899   1.332  14.807  14.339 -0.1969  0.0304  0.0205
29302W        W32900  14.108   5.848  10.546 -0.0155 -0.1517 -0.4259
29303W        W32901   2.679  15.329  13.633  0.0268  0.0412  0.0158
29304W        W32902   2.588  10.929   1.615  0.0925 -0.0053  0.1257
29305W        W32903   7.314   3.728  10.620  0.1690 -0.1039 -0.1700
29306W        W32904  11.443  12.304  13.675  0.0548  0.2710  0.1686
29307W        W32905   5.189   5.030  14.567 -0.0393 -0.1003  0.4596
29308W        W32906  13.974   4.905   9.954  0.0856  0.0264 -0.0028
29309W        W32907  14.005   9.502   1.693 -0.0077 -0.2206 -0.3160
29310W        W32908  16.099   8.333   1.474  0.1712  0.1737 -0.0492
29311W        W32909   4.410  11.057   3.816 -0.2427 -0.0506 -0.0377
29312W        W32910   3.770  11.019   6.003  0.0052 -0.1835  0.1110
29313W        W32911  15.378  10.867   2.169 -0.0623 -0.2631  0.1003
29314W        W32912  12.950   9.842   6.654 -0.1220  0.2764  0.0418
29315W        W32913   2.049   8.975   7.281  0.0242 -0.2496 -0.3880
29316W        W32914   3.993   9.282   8.079  0.0016  0.0552  0.1421
29317W        W32915  10.884   9.891  10.654 -0.2506 -0.1543 -0.1563
29318W        W32916   2.792  11.799   9.898  0.0742  0.1516 -0.0205
29319W        W32917  14.894  15.955   0.445 -0.1831 -0.2359  0.1287
29320W        W32918  16.162  15.808   4.963  0.0050  0.0555  0.0158
29321W        W32919   4.717   4.907  14.610  0.0242 -0.0810 -0.0581
29322W        W32920  11.723  10.717   7.737 -0.2431 -0.0142 -0.0599
29323W        W32921   9.314   1.391  10.413  0.0818  0.0689 -0.1399
29324W        W32922  14.167   5.296   9.654 -0.1365  0.0950 -0.0550
29325W        W32923   1.704  13.875  10.263  0.0096 -0.0275  0.2989
29326W        W32924   7.664  15.997   9.033 -0.2045  0.0120 -0.0608
29327W        W32925   8.875  13.724   8.229  0.1479 -0.1134  0.1892
29328W        W32926   4.756  11.825   1.990  0.0062 -0.1667 -0.1309
29329W        W32927  13.422  11.458   9.697 -0.0929  0.0012 -0.1045
29330W        W32928   7.236   2.814   9.047 -0.1696 -0.1308 -0.1478
29331W        W32929  13.922   8.491   0.675  0.4667 -0.0816 -0.0384
29332W        W32930   7.576   7.390   2.622  0.0713  0.0113  0.2115
29333W        W32931  15.828   5.048   8.581  0.3441 -0.1098 -0.1348
29334W        W32932  13.564   0.683   9.904  0.1664  0.0652 -0.1216
29335W        W32933   7.881  11.127   5.142  0.1937  0.1192  0.0339
29336W        W32934   4.895   7.562   8.834  0.0593 -0.0859  0.0613
29337W        W32935   7.478  13.862   5.816  0.1329  0.0583  0.0458
29338W        W32936   1.079  12.814   0.923  0.1208 -0.0413 -0.0673
29339W        W32937  10.691  15.031   7.130  0.1715 -0.1136  0.4476
29340W        W32938  10.121   8.898   1.589 -0.1435  0.0034 -0.3023
29341W        W32939  12.612   2.624  12.748 -0.2435 -0.0433  0.0644
29342W        W32940   1.210   2.700   0.796  0.3536  0.1793  0.4269
29343W        W32941  15.925   1.665  13.436  0.1819 -0.0321  0.0969
29344W        W32942   4.589   8.969   0.999 -0.0120 -0.0038 -0.3323
29345W        W32943  14.773   2.184  12.920 -0.2502 -0.1767  0.1008
29346W        W32944   5.480   8.784  15.196 -0.1399 -0.0212 -0.0677
29347W        W32945   8.706   0.356   0.865 -0.1555 -0.1311 -0.2598
29348W        W32946   5.861  15.885  15.011 -0.1602  0.3699  0.0613
29349W        W32947   6.221  13.326   9.902 -0.1518 -0.1606  0.0305
29350W        W32948   4.228   2.110   9.343  0.3054  0.0494 -0.1778
29351W        W32949  11.466  11.869   6.439  0.4478  0.0817  0.1419
29352W        W32950  12.355   0.900   5.400  0.0256 -0.1815 -0.0950
29353W        W32951  15.849   0.183  12.047 -0.0836 -0.3023  0.1259
29354W        W32952   2.095  13.350  12.530 -0.0349 -0.2324 -0.0668
29355W        W32953   6.444   3.732   0.223  0.2609 -0.0090 -0.0133
29356W        W32954  14.958   5.227   9.584  0.0432 -0.1048 -0.0823
29357W        W32955  11.438   1.176   4.455  0.0546 -0.1229 -0.2214
29358W        W32956  14.075   5.239  10.477  0.1267 -0.1663 -0.0888
29359W        W32957   3.502   4.115  13.640 -0.0225  0.0725  0.0785
29360W        W32958  12.108   3.966  16.293  0.0387  0.2384 -0.1288
29361W        W32959   6.758  14.830   8.971 -0.0002 -0.2876  0.2227
29362W        W32960  15.483   4.409   6.590 -0.0347  0.0494 -0.1126
29363W        W32961  16.157   2.123  13.416 -0.0370 -0.3708 -0.0392
29364W        W32962   2.982  14.251   1.298 -0.1021  0.6078  0.2770
29365W        W32963   4.507   3.384   7.527 -0.1387  0.0562 -0.0491
29366W        W32964   1.234  15.000   7.013 -0.5884  0.0988  0.0127
29367W        W32965  11.535  10.499  15.426  0.1173  0.0593 -0.1040
29368W        W32966   3.198   3.493   8.429  0.1360  0.1637  0.0736
29369W        W32967   8.986   1.933   5.201 -0.1355 -0.0272  0.3862
29370W        W32968  10.216   6.577   0.940  0.2525  0.0888  0.1317
29371W        W32969   5.645  14.128   1.169 -0.3426  0.1025 -0.0570
29372W        W32970  10.281  15.487   6.997 -0.0967 -0.1426  0.1565
29373W        W32971   4.727   6.532  15.295  0.0045 -0.1148  0.1683
29374W        W32972   5.660   0.883  13.236 -0.1754 -0.1384 -0.1223
29375W        W32973  11.209   6.470   3.056  0.0637 -0.3264 -0.0283
29376W        W32974   0.906  16.067   4.549  0.0474  0.3197 -0.0708
29377W        W32975   7.389  10.820   0.384 -0.2786 -0.1817  0.1103
29378W        W32976  11.589   9.091  11.111 -0.0363 -0.2102 -0.0709
29379W        W32977  14.160   8.110   8.587 -0.3323 -0.0662 -0.1167
29380W        W32978   5.486   1.546   4.572 -0.0618 -0.3066 -0.4748
29381W        W32979   6.187   4.984  12.072  0.0888 -0.1687  0.1076
29382W        W32980   2.485   3.870  14.739  0.0029  0.3535 -0.0334
29383W        W32981   4.353   6.979   2.762 -0.0945 -0.0540 -0.1100
29384W        W32982  11.647  10.227   1.690  0.1498 -0.0983  0.0393
29385W        W32983  13.642  16.279   0.990 -0.0140 -0.4232 -0.0699
29386W        W32984   9.928  15.104   0.923 -0.1018  0.0313  0.1346
29387W        W32985  16.198   9.098  12.188 -0.2505 -0.0528 -0.0896
29388W        W32986  10.733   9.206  15.796 -0.0912  0.1438  0.1207
29389W        W32987  12.852  13.024   0.861 -0.0427 -0.0732 -0.0336
29390W        W32988  13.027  12.454   4.327 -0.1536 -0.2780 -0.1765
29391W        W32989   8.782   8.502  12.506 -0.0730 -0.3905 -0.2191
29392W        W32990  10.989   7.365  13.801 -0.0215  0.1369 -0.2755
29393W        W32991   6.114  11.119  14.379 -0.0378 -0.2120 -0.0864
29394W        W32992   9.253   1.518  13.613 -0.2287  0.0343  0.4173
29395W        W32993  15.656   8.135   2.155  0.0613  0.0822  0.2290
29396W        W32994   3.544   0.966  15.005 -0.0304  0.2176 -0.2726
29397W        W32995  11.320   8.175  14.578  0.2910 -0.0239 -0.0203
29398W        W32996   4.777   2.601   6.563  0.0921  0.1379  0.0985
29399W        W32997   1.846  11.747  14.102 -0.2711 -0.0044 -0.1479
29400W        W32998   4.691  12.150   2.455 -0.1784 -0.4820  0.0391
29401W        W32999   0.907  12.687   3.828  0.0753  0.2738  0.0381
29402W        W33000  15.681   8.420   7.025  0.0062  0.2211  0.0373
29403W        W33001  11.749  12.674  12.553  0.0993  0.3398 -0.1030
29404W        W33002  13.147   7.929  10.677 -0.2942 -0.1339  0.0520
29405W        W33003   7.718   0.374  10.941  0.1784  0.0183  0.0363
29406W        W33004   2.714   1.949   5.927 -0.1908 -0.1978  0.1921
29407W        W33005   0.719   4.366  15.819  0.0329 -0.1602  0.1774
29408W        W33006   5.452   4.815  11.767 -0.0176  0.0081 -0.0002
29409W        W33007   1.613  13.254  13.181 -0.0903 -0.1007 -0.0167
29410W        W33008   4.157  15.151   1.262  0.2057 -0.1021  0.3576
29411W        W33009   1.496  13.748  14.762  0.0767 -0.3595  0.1840
29412W        W33010   2.091  11.785   5.016  0.2256 -0.0473  0.0494
29413W        W33011   7.089  11.715   3.303  0.0346  0.1910  0.1005
29414W        W33012   9.617   2.275   9.417 -0.2555 -0.0466  0.4981
29415W        W33013   0.560   3.337   7.382 -0.0404  0.0265 -0.1416
29416W        W33014  14.926  15.358   8.243 -0.3295 -0.1243 -0.1637
29417W        W33015   7.038  10.192  13.363  0.0714 -0.1861 -0.0862
29418W        W33016  10.709  15.855  12.261  0.2015  0.2622 -0.1525
29419W        W33017   9.063  10.555  15.381 -0.3622  0.0788  0.1243
29420W        W33018  14.561  12.583  16.347  0.1831 -0.0658  0.0839
29421W        W33019   6.309  13.711   0.172  0.3562  0.0241 -0.0844
29422W        W33020   1.086  11.348  14.468  0.2646 -0.1602 -0.0363
29423W        W33021   0.758   0.500   3.556 -0.0381 -0.1442  0.0746
29424W        W33022   2.849   9.917   6.344  0.2042  0.2161  0.0102
29425W        W33023   4.906  15.763  16.104  0.0018 -0.0568 -0.0406
29426W        W33024   2.278   7.912  10.297 -0.4781  0.0050 -0.2095
29427W        W33025   9.122  14.974   5.492 -0.2717  0.0984 -0.0418
29428W        W33026   7.237   6.128  12.817 -0.3218  0.1139  0.0813
29429W        W33027   0.448  15.507  14.855 -0.0712 -0.0075 -0.1010
29430W        W33028  12.344   0.095   2.473 -0.0780  0.2590 -0.0459
29431W        W33029   7.463  13.978   6.363  0.0357 -0.0258  0.1300
29432W        W33030   0.326  14.437   7.328 -0.2725  0.0586 -0.2762
29433W        W33031   8.507   4.281   4.259 -0.0016 -0.2105 -0.1781
29434W        W33032   3.298   0.722   2.313 -0.1903  0.0095 -0.1392
29435W        W33033  11.615   3.104  10.539 -0.1268 -0.0651  0.0241
29436W        W33034   0.881   9.057  14.333 -0.1589  0.0314 -0.0257
29437W        W33035   2.516   0.009   4.473  0.1601 -0.1247  0.2042
29438W        W33036   7.488  10.341   6.865  0.2336 -0.2329  0.0350
29439W        W33037   3.905  11.685   1.969 -0.4394 -0.0267  0.2549
29440W        W33038   5.191  13.931   1.130  0.0425  0.0827 -0.0075
29441W        W33039   8.158  11.595   7.080  0.3325  0.2120 -0.0838
29442W        W33040   0.902   7.617   7.159 -0.1390 -0.2024  0.1561
29443W        W33041  16.081  13.689  15.381 -0.0816  0.0822  0.3711
29444W        W33042   6.273   8.603   4.475 -0.1463 -0.0125  0.3203
29445W        W33043  12.292  15.159   9.007  0.0394  0.2469 -0.1402
29446W        W33044   5.019   7.913   0.760  0.0079  0.0604 -0.0186
29447W        W33045  14.476   7.537   5.775 -0.2117 -0.2605  0.3106
29448W        W33046   2.610  11.974   6.589 -0.0757 -0.0565 -0.0338
29449W        W33047  15.650   9.398   6.756 -0.1057 -0.2353  0.0126
29450W        W33048   6.579   6.827   5.089 -0.0919 -0.2112  0.1323
29451W        W33049   5.200   3.273  10.490  0.2664  0.2203  0.2396
29452W        W33050   9.170  10.694   4.955  0.2355 -0.4198 -0.1591
29453W        W33051  11.171   9.236   3.710  0.1119  0.0688 -0.0188
29454W        W33052   2.741  16.149   8.500 -0.1585 -0.0293  0.2543
29455W        W33053   7.345   0.493  11.338 -0.0138  0.0539 -0.2236
29456W        W33054   8.494   3.259  10.563  0.1807  0.1797 -0.0636
29457W        W33055  15.152   7.548   2.183 -0.5113  0.3448 -0.0560
29458W        W33056   0.193   4.204   0.070 -0.2770 -0.0575 -0.0329
29459W        W33057  13.891   9.736   9.581  0.0383  0.1126 -0.2563
29460W        W33058   3.803  11.538   7.721 -0.1586 -0.2936 -0.1903
29461W        W33059   5.565   1.408  11.921  0.3011  0.0304 -0.0776
29462W        W33060   0.913  14.253  14.821 -0.0100 -0.0824 -0.3306
29463W        W33061   5.075   8.241   6.083 -0.2099  0.0991 -0.1609
29464W        W33062   9.759   3.861   8.613  0.0680 -0.3499 -0.0115
29465W        W33063   2.071  11.129   6.491  0.1582  0.1817 -0.1503
29466W        W33064  15.307  14.121  14.456  0.0641  0.0510 -0.0281
29467W        W33065  12.057   8.739   4.513  0.0236 -0.0910  0.1294
29468W        W33066  12.306   7.300   9.536 -0.0922  0.1186 -0.2723
29469W        W33067   5.672   5.541  10.072 -0.1746 -0.0501 -0.1974
29470W        W33068   5.692   4.603   9.997  0.1543  0.1364  0.1202
29471W        W33069   9.168  13.508   3.533  0.2122  0.0179 -0.0918
29472W        W33070  14.364   0.386  12.542  0.2669 -0.3135  0.2257
29473W        W33071   4.672   0.323   5.045 -0.3021 -0.0823  0.0188
29474W        W33072  14.849   1.028  11.633  0.5550  0.0977  0.2155
29475W        W33073  13.651  10.211  11.268  0.3139 -0.0120 -0.1990
29476W        W33074   9.520  12.645  11.965  0.0294  0.6778 -0.1531
29477W        W33075   0.381  11.931   8.891  0.0541 -0.0349  0.0611
29478W        W33076   0.188   6.727   5.766  0.3712 -0.0856 -0.1346
29479W        W33077  14.733  11.963   4.005 -0.1610 -0.3192  0.1569
29480W        W33078   1.144   0.746   0.907  0.1148  0.1439  0.2697
29481W        W33079  14.732   3.096   8.204  0.0311  0.2851 -0.2344
29482W        W33080   9.079  11.370   0.105  0.2082 -0.1231  0.0165
29483W        W33081  16.083  15.677  11.448  0.0041  0.2484 -0.0796
29484W        W33082  11.780   5.259   1.345  0.1283  0.2524  0.2082
29485W        W33083  12.548  13.718  12.163  0.1035  0.1053  0.1330
29486W        W33084   4.356  15.592   6.411  0.1038 -0.1765 -0.0564
29487W        W33085   3.531   5.800  12.999 -0.0836  0.1382 -0.0322
29488W        W33086  16.328   7.808   8.516 -0.2357  0.0117 -0.0068
29489W        W33087  12.336   8.373   4.384 -0.1170  0.1269 -0.2045
29490W        W33088  15.842   6.860   0.952  0.1922  0.0645 -0.1131
29491W        W33089  16.298   0.865  13.225  0.0257  0.0561  0.2693
29492W        W33090   0.835   3.547   6.386 -0.0754  0.0407  0.3503
29493W        W33091  10.238  12.692   8.419  0.2039 -0.1172 -0.1193
29494W        W33092  14.500   1.130   4.556  0.3326 -0.1177  0.1262
29495W        W33093   1.280  10.028  11.694  0.1416  0.1352 -0.0710
29496W        W33094   8.770  15.456   0.959  0.1245 -0.1279 -0.0353
29497W        W33095   0.609  12.243  12.301 -0.1549  0.0714  0.0528
29498W        W33096   1.700   2.304  13.197  0.2369  0.0421 -0.0546
29499W        W33097   1.950  15.349   4.876  0.2886  0.1489 -0.0470
29500W        W33098   4.989   9.153   7.062 -0.1085  0.0817  0.1916
29501W        W33099  14.150   2.426   7.090 -0.3904  0.2711  0.0019
29502W        W33100   2.196   5.461   4.714  0.2843 -0.1327 -0.2663
29503W        W33101   5.719  15.851   6.103 -0.1326  0.3980  0.0215
29504W        W33102  12.543   8.527   7.146 -0.2479  0.2404  0.0476
29505W        W33103  13.189   4.393   3.505 -0.3734 -0.0027 -0.1819
29506W        W33104   2.298   0.788  14.541  0.2228  0.2031 -0.0628
29507W        W33105   9.695   9.820   9.205 -0.0275 -0.1164  0.0054
29508W        W33106   4.362   4.017   4.909 -0.0929 -0.0891  0.2678
29509W        W33107   1.229   4.743   8.643  0.1981 -0.1773 -0.0998
29510W        W33108   6.990   8.599   7.919 -0.2353  0.2118 -0.1851
29511W        W33109   7.573  11.917  16.028 -0.0331 -0.0096 -0.1174
29512W        W33110  14.739   4.360   3.863  0.0870  0.1343 -0.0562
29513W        W33111   4.754   8.245   2.490  0.3138  0.2194  0.1201
29514W        W33112  14.405  16.231   5.088  0.2299  0.3266 -0.4159
29515W        W33113  15.512   3.422   5.714 -0.3884  0.1975  0.2391
29516W        W33114   9.869   4.378   8.286  0.1896 -0.2476 -0.1561
29517W        W33115  12.632   6.321   3.514 -0.0624  0.0929  0.2909
29518W        W33116  10.563  15.905   6.458  0.0009 -0.1198 -0.2596
29519W        W33117   5.321   7.454  14.498  0.2436 -0.0933  0.0776
29520W        W33118   9.836  14.360   6.373  0.0396  0.0839 -0.0656
29521W        W33119   0.638   1.548   6.441 -0.0228 -0.0342  0.0721
29522W        W33120  11.620   7.580  10.906  0.2850  0.2324 -0.1120
29523W        W33121   8.097  12.781  14.602 -0.0584 -0.0790  0.3163
29524W        W33122  15.530  14.119   4.302  0.1412 -0.0554 -0.1590
29525W        W33123   1.774   4.188   3.383  0.1280  0.0100  0.0990
29526W        W33124  11.237   7.572   5.763 -0.0270 -0.0336  0.1718
29527W        W33125   0.973  14.453  14.375  0.0131 -0.0139  0.0110
29528W        W33126   0.897   4.414  13.890  0.2448 -0.1185 -0.3496
29529W        W33127  10.690   6.388   4.920 -0.2559 -0.0391 -0.0137
29530W        W33128  12.975   4.260  11.574  0.0769  0.3016  0.1462
29531W        W33129  10.847   8.535   2.147  0.0696 -0.1422  0.0413
29532W        W33130   1.411   1.492   5.636 -0.1726 -0.1111  0.1202
29533W        W33131  10.581  15.647   4.932  0.0902  0.0021 -0.0527
29534W        W33132  14.884   0.550   1.741  0.0243  0.1182  0.0430
29535W        W33133   3.379   2.860  10.464  0.1665 -0.0507 -0.2322
29536W        W33134   0.728   3.528   0.921 -0.1719  0.0059  0.3336
29537W        W33135  11.794   1.460   2.811  0.2101 -0.0112  0.2089
29538W        W33136   3.775   1.942  12.818  0.1973  0.4779  0.1231
29539W        W33137  13.500   1.287   8.795 -0.0633  0.3629 -0.0094
29540W        W33138   0.337  13.584   3.881 -0.1055  0.2050 -0.0342
29541W        W33139   4.665   1.820   7.109 -0.2643  0.1774 -0.0980
29542W        W33140  12.717   0.522   8.029  0.0556 -0.0176 -0.1297
29543W        W33141   7.601  13.612  12.990 -0.0402  0.1862  0.0691
29544W        W33142  10.099   1.588   8.702 -0.1858  0.0936  0.1218
29545W        W33143   5.563  12.307   8.719  0.1833 -0.1045 -0.3065
29546W        W33144   4.828   7.531   2.896 -0.0515  0.2476  0.0847
29547W        W33145  11.937   5.333   4.140 -0.0173 -0.1445  0.0210
29548W        W33146  10.954   5.477   9.054 -0.0564 -0.0769 -0.1667
29549W        W33147   3.140   9.592   1.267 -0.0193 -0.1534  0.0701
29550W        W33148  15.392  15.821   1.887  0.0738  0.1253 -0.1154
29551W        W33149   4.637   8.635   5.268  0.0056 -0.1221 -0.1633
29552W        W33150  14.057   1.918   9.647 -0.2281 -0.2591  0.4520
29553W        W33151   9.667   5.220   1.979  0.0801 -0.4135 -0.3619
29554W        W33152   7.947   5.210   6.874  0.1417  0.2027  0.0426
29555W        W33153   8.597  13.209   3.075 -0.3055  0.0422  0.1157
29556W        W33154   9.872  13.699  13.118 -0.1308 -0.1281  0.0599
29557W        W33155  11.908   8.407   4.854 -0.3161  0.1396 -0.4323
29558W        W33156   2.874  13.624   1.852  0.3454 -0.0319 -0.3913
29559W        W33157   6.929  11.647  11.225  0.0734 -0.2581  0.3191
29560W        W33158  11.929  12.762   3.499  0.0410 -0.0128  0.0019
29561W        W33159  10.709   5.510  12.298  0.2675  0.3638 -0.2528
29562W        W33160   5.445   5.842  10.950  0.2879  0.0889 -0.0648
29563W        W33161   0.019  14.692   4.091  0.3569  0.0163  0.0633
29564W        W33162   3.925   5.853   8.330  0.0418  0.0784  0.1450
29565W        W33163   3.827  12.885  13.413  0.1433 -0.2694 -0.1387
29566W        W33164  10.587  14.239  10.322 -0.1988 -0.1077 -0.1098
29567W        W33165  12.532  16.220   7.543 -0.0933 -0.1879 -0.0530
29568W        W33166   0.044   0.763   8.246  0.1492  0.1739  0.3942
29569W        W33167  12.849   0.785   9.065  0.1553  0.0903  0.1087
29570W        W33168  12.726   9.903  15.135 -0.2128 -0.1540  0.0002
29571W        W33169   4.492  15.962   7.994  0.2404 -0.1407 -0.2905
29572W        W33170   4.913   5.328   3.672  0.0521 -0.1750  0.1651
29573W        W33171   1.761   2.296   8.502 -0.2985 -0.0632 -0.1882
29574W        W33172   6.144  10.577   6.733 -0.0042  0.0016 -0.2240
29575W        W33173  12.054   5.529  13.768 -0.0641  0.3326 -0.0126
29576W        W33174   9.786   4.653   0.537  0.2365  0.0360 -0.1093
29577W        W33175   8.636   8.702   6.534  0.2990  0.0080  0.0173
29578W        W33176  15.292   3.930  15.354 -0.0979 -0.2500  0.2491
29579W        W33177  11.418   5.709   7.717  0.1208  0.1356 -0.0237
29580W        W33178   2.123   6.421   4.108  0.1040  0.1106 -0.0680
29581W        W33179  13.400   1.577   1.472 -0.2942 -0.1112 -0.0673
29582W        W33180   1.479   7.284   9.187 -0.2281  0.0683  0.3068
29583W        W33181   0.177   8.971  15.231 -0.2647  0.3405 -0.0979
29584W        W33182  12.441   5.559   4.267  0.1290  0.0884 -0.0502
29585W        W33183  13.296   2.519  11.019  0.1658  0.2592 -0.2070
29586W        W33184  13.216  13.918  12.038  0.4059  0.0929  0.0957
29587W        W33185   4.696   2.258   4.938 -0.0845  0.5927 -0.1576
29588W        W33186   6.370  14.445   4.213  0.0933 -0.1003  0.0754
29589W        W33187  16.114   2.191   3.182 -0.1700 -0.1908 -0.0293
29590W        W33188   5.717   9.797  14.281  0.0150  0.0138 -0.2738
29591W        W33189  16.233  11.453  10.947 -0.0274  0.3357 -0.2284
29592W        W33190   1.961  12.881  12.616  0.0198  0.0252 -0.0247
29593W        W33191   2.684   7.656  10.527 -0.0573 -0.0793 -0.0756
29594W        W33192   9.947   8.875  15.079 -0.2001 -0.0901  0.2136
29595W        W33193  12.249  12.485  11.716  0.1531  0.1078 -0.1353
29596W        W33194  10.696   6.066   4.430 -0.2108  0.4058 -0.0897
29597W        W33195   9.166  10.960   1.116  0.2766  0.0384  0.0960
29598W        W33196   7.896   2.539   5.869  0.1160 -0.2512  0.2094
29599W        W33197   9.066  11.203   3.199  0.4482 -0.0228  0.1713
29600W        W33198   6.749   6.116  16.277 -0.1355  0.0764  0.0007
29601W        W33199   3.780  10.400  15.029 -0.0443  0.1442 -0.0891
29602W        W33200  14.960  15.920  10.078 -0.0366  0.2156  0.0793
29603W        W33201   3.076   8.214   4.890  0.1874 -0.1143 -0.1855
29604W        W33202   3.315   8.933   5.709  0.1999  0.0001 -0.3655
29605W        W33203  12.559   4.020   8.620  0.0158  0.1481 -0.1662
29606W        W33204   1.677   0.420  12.212  0.2741  0.0459 -0.2138
29607W        W33205  10.918  15.348  13.681  0.1282  0.0721  0.0659
29608W        W33206  13.722   6.515   6.951  0.1540 -0.1244 -0.0351
29609W        W33207   2.594  10.415   1.747 -0.4392 -0.1226 -0.0998
29610W        W33208   8.079   4.336   2.929  0.1789  0.0720 -0.1602
29611W        W33209   6.677  14.016   3.483 -0.1692  0.0902 -0.2733
29612W        W33210   5.254   1.490  15.564  0.3256  0.2460 -0.3103
29613W        W33211  15.282   1.853   3.552  0.0675 -0.4503 -0.1151
29614W        W33212   6.165   4.889  16.248  0.1544 -0.1267  0.0793
29615W        W33213   6.324   5.876  15.085  0.0918 -0.0502 -0.1140
29616W        W33214  12.793   5.195  10.853  0.0725 -0.1339 -0.0043
29617W        W33215   1.951  15.689   1.352 -0.2136  0.1334  0.0000
29618W        W33216  13.021  13.201  12.599  0.1961 -0.0472 -0.0198
29619W        W33217  10.484  13.273   0.349 -0.0340 -0.2842 -0.0848
29620W        W33218   8.646   3.217   7.020 -0.0720 -0.0761  0.1175
29621W        W33219  11.133  16.118  13.738 -0.2776  0.1329  0.2137
29622W        W33220   8.728   6.840   6.354 -0.0015 -0.3086  0.0689
29623W        W33221  13.198  15.000   5.377 -0.2049  0.2911  0.2094
29624W        W33222   9.385  15.438   9.202 -0.3318  0.1456 -0.1661
29625W        W33223   7.901   9.613   9.881 -0.3295  0.2395  0.1274
29626W        W33224  14.951   7.000  15.188 -0.2788  0.1533  0.0642
29627W        W33225   5.854   1.764   2.939 -0.1057  0.2205 -0.1176
29628W        W33226   5.626   4.396   8.093 -0.0927 -0.1677 -0.3268
29629W        W33227  15.368   9.246  10.568 -0.1182 -0.0255  0.0213
29630W        W33228  11.620   7.118   9.044 -0.1161 -0.1171  0.2064
29631W        W33229   5.159   8.999   4.034  0.2392 -0.1572 -0.1226
29632W        W33230   1.900   5.167   8.453 -0.2162  0.0468 -0.2992
29633W        W33231   2.022   9.242   0.600 -0.1097  0.0790  0.0950
29634W        W33232  10.636   5.997  12.617  0.0204 -0.2372  0.0001
29635W        W33233   6.097  15.728  13.246 -0.4112 -0.1449 -0.2018
29636W        W33234   5.717  15.581  14.566 -0.1094 -0.1307 -0.1150
29637W        W33235   1.748   6.232   6.377 -0.2899 -0.2314  0.2088
29638W        W33236  12.190  14.327   9.839 -0.2841  0.1705  0.2458
29639W        W33237  14.047  15.911  15.336  0.2541 -0.0970 -0.1808
29640W        W33238   5.676   0.655  14.323  0.0160 -0.0935 -0.2561
29641W        W33239   1.563  10.752   2.314 -0.0339  0.3077  0.1681
29642W        W33240   0.149  13.424   5.572 -0.1811 -0.0894 -0.0400
29643W        W33241   9.934   6.544   8.916 -0.0351 -0.0588 -0.0203
29644W        W33242  12.109   0.800   6.900  0.3945 -0.0628  0.1482
29645W        W33243   6.952   5.958   6.664 -0.0752  0.2028  0.0256
29646W        W33244   5.394  15.260   6.234 -0.0099  0.0420  0.3560
29647W        W33245   6.156  16.197   0.072  0.4194  0.2271  0.2951
29648W        W33246   7.674   3.600  10.231  0.2001 -0.1726 -0.0032
29649W        W33247  11.669   9.168   2.786 -0.0027  0.2196  0.0291
29650W        W33248   7.942  13.303   5.168 -0.0644 -0.3167 -0.0373
29651W        W33249  12.177   3.857   1.308 -0.1185  0.2437 -0.0589
29652W        W33250   5.740  14.056  11.283 -0.3741  0.0567 -0.2125
29653W        W33251  14.471  15.644  10.618  0.1407 -0.0798 -0.1396
29654W        W33252  10.056   2.315   2.372  0.1645  0.1751 -0.0442
29655W        W33253   4.622  13.926   9.188  0.0439  0.4969 -0.1997
29656W        W33254  12.536  14.180  12.404 -0.0670 -0.2473 -0.0014
29657W        W33255   0.015   2.954   2.900  0.1069  0.0979  0.0219
29658W        W33256  10.323   7.427  10.051  0.2345  0.0916  0.1144
29659W        W33257  14.786  10.409   5.318  0.1356  0.3427  0.0452
29660W        W33258   6.329   5.777   6.299 -0.1140 -0.1314  0.0853
29661W        W33259   9.145   0.976   4.479 -0.0916  0.0612  0.1932
29662W        W33260  11.498   8.249  11.459  0.0732 -0.1116  0.0876
29663W        W33261   6.211   7.485   0.380  0.0010 -0.1020 -0.0568
29664W        W33262   8.900  11.904   4.699 -0.2820  0.3084  0.1544
29665W        W33263  14.908   4.614   5.983 -0.0869 -0.0727  0.0755
29666W        W33264   3.384  14.535   5.774  0.0586 -0.1676 -0.1333
29667W        W33265   5.548  10.728   4.691 -0.0377  0.0384 -0.0730
29668W        W33266   5.931  10.423   6.241 -0.0077  0.1397  0.1199
29669W        W33267  11.955   8.703   0.770  0.1711 -0.2316  0.1041
29670W        W33268  15.447  12.354   5.743 -0.0451 -0.4774  0.1502
29671W        W33269  13.942  11.778  14.874 -0.1554 -0.0151 -0.1449
29672W        W33270   4.626  13.936   7.054  0.1083 -0.1480  0.0623
29673W        W33271   1.240  10.296  14.621 -0.2179  0.0244  0.0882
29674W        W33272  13.256   7.405   9.773 -0.0068 -0.0478 -0.3131
29675W        W33273   7.237   9.549   5.042  0.0170 -0.0230  0.1110
29676W        W33274   1.663   3.531  15.841 -0.1614  0.2322  0.2200
29677W        W33275  11.175   2.799   7.462  0.1031  0.1363  0.0407
29678W        W33276   4.418  15.594  11.303 -0.1671 -0.2812 -0.2546
29679W        W33277   3.597   8.280   4.978  0.1556 -0.1487  0.0403
29680W        W33278  11.255   0.566   7.005 -0.3137 -0.2148 -0.0955
29681W        W33279   7.018   8.519   2.550  0.1121 -0.2377 -0.2812
29682W        W33280   5.480   0.237   1.638  0.0174 -0.0377 -0.1917
29683W        W33281  13.281   7.751   2.518 -0.1346 -0.0770  0.4584
29684W        W33282  12.675  12.310   4.737 -0.1388 -0.1744  0.2423
29685W        W33283  14.104   6.607   7.672 -0.3229 -0.2191  0.0535
29686W        W33284   2.024   2.918  12.242 -0.0076  0.3389  0.3829
29687W        W33285   3.598   7.777  10.177  0.1559 -0.0188 -0.0776
29688W        W33286   8.255   0.984   3.053  0.0667  0.1913 -0.0451
29689W        W33287   2.678   2.361   8.708  0.0597  0.2285 -0.2179
29690W        W33288  15.520  16.314   4.355 -0.2089  0.0271  0.1486
29691W        W33289   9.223   2.755   2.826 -0.1569  0.1964 -0.4188
29692W        W33290  15.739  14.283   6.833  0.2913  0.3589 -0.2259
29693W        W33291  14.959   3.483   8.013 -0.1103  0.2416  0.1665
29694W        W33292   9.265  10.538   6.295 -0.1161  0.1562  0.0007
29695W        W33293   4.531  10.552  10.666 -0.4343  0.2406  0.0755
29696W        W33294   8.055  12.767   6.267 -0.1563 -0.2033 -0.1271
29697W        W33295   8.469   8.141   8.733 -0.1925  0.2585  0.3186
29698W        W33296   3.699  14.341  12.439 -0.2717 -0.3759 -0.2193
29699W        W33297   7.466  11.568   5.702 -0.0092 -0.1882 -0.0403
29700W        W33298   5.180  16.308  14.879 -0.0663 -0.0869 -0.2215
29701W        W33299  11.796   9.734  10.567 -0.0177 -0.0404 -0.1554
29702W        W33300   6.643  10.041  13.615 -0.2902  0.0251  0.0829
29703W        W33301   6.265   4.118   2.068  0.0628 -0.1233 -0.2403
29704W        W33302   1.424   4.291  10.379 -0.2328  0.2324  0.2498
29705W        W33303   9.885  16.053   5.484 -0.1514 -0.0644  0.0313
29706W        W33304  12.744  12.942   2.111 -0.1080 -0.1150  0.0463
29707W        W33305  13.011  13.473  12.153  0.0068  0.0558 -0.0253
29708W        W33306  12.640   6.321  11.659  0.2600 -0.2050 -0.2326
29709W        W33307   2.374   5.227   8.154  0.4007 -0.1949  0.0980
29710W        W33308  12.083   5.015  15.966 -0.1900  0.1930  0.1308
29711W        W33309   1.912   6.089   1.254  0.3720 -0.0456 -0.1898
29712W        W33310  13.099  11.795   0.746  0.0056  0.0169  0.1140
29713W        W33311   7.113  12.610   8.528 -0.0563  0.0885 -0.0261
29714W        W33312   9.275   1.330  10.924 -0.0817  0.0354  0.3187
29715W        W33313   3.270   4.659   2.940 -0.2342  0.1123  0.1355
29716W        W33314   8.864   3.157   3.146 -0.1374 -0.0746  0.3702
29717W        W33315   0.274  10.771  13.682 -0.2285  0.4054  0.1431
29718W        W33316   1.779   1.521   5.165  0.0436  0.1176  0.2964
29719W        W33317  11.006   8.144   0.782 -0.1290 -0.4814  0.0541
29720W        W33318  12.259   9.410   7.490 -0.0266  0.4095 -0.1537
29721W        W33319  15.579   8.699  13.192  0.1733 -0.2281 -0.0783
29722W        W33320  13.170   4.782   4.748 -0.2659 -0.3033 -0.2579
29723W        W33321  14.003  12.179  10.012 -0.0524  0.0513  0.2602
29724W        W33322  11.777  12.194  12.453  0.0507  0.4220 -0.0612
29725W        W33323   7.567   9.613   0.782 -0.0943  0.0065  0.0909
29726W        W33324   1.548  12.324   4.002 -0.1127 -0.0903  0.2039
29727W        W33325   8.104  16.267   8.302  0.1299 -0.2318 -0.1294
29728W        W33326  10.275   2.968   1.088  0.2831 -0.1317  0.4824
29729W        W33327   5.931  14.617   8.957 -0.0114 -0.0430 -0.1208
29730W        W33328  14.564  15.006   0.531  0.2659  0.0015 -0.0003
29731W        W33329   7.832  10.272  12.637 -0.3014 -0.0886  0.1660
29732W        W33330   7.906  12.171   8.313  0.1105 -0.0449  0.4442
29733W        W33331  12.565   9.848  11.227  0.0521 -0.0719  0.1117
29734W        W33332  12.340  13.070   9.276  0.1581 -0.1850  0.0610
29735W        W33333   3.002  13.364  12.166  0.1644 -0.1466 -0.0583
29736W        W33334   7.441   9.913   7.210 -0.2157  0.0878  0.0054
29737W        W33335  14.391   2.032   3.102 -0.1371  0.1137 -0.2817
29738W        W33336  10.886   8.902   9.226  0.1642  0.3573  0.0589
29739W        W33337   6.758   3.163   0.355 -0.0285 -0.6225  0.2806
29740W        W33338   4.819   1.232  13.786 -0.3128 -0.3701 -0.0067
29741W        W33339   1.867   5.404   6.940  0.0302 -0.2826 -0.1342
29742W        W33340   2.296  11.955   6.931  0.0679 -0.1382 -0.2897
29743W        W33341  14.635   9.221   8.967 -0.0465 -0.1439 -0.1622
29744W        W33342  11.876  15.070  15.777  0.1510 -0.0671 -0.1107
29745W        W33343   3.911   4.856  10.642 -0.0104 -0.3543  0.2300
29746W        W33344   6.301   6.649  12.634 -0.1330 -0.2294 -0.1539
29747W        W33345  13.165  13.839   1.138 -0.1377 -0.2322  0.0753
29748W        W33346  14.425   2.772   7.513  0.1239  0.0365 -0.1012
29749W        W33347  11.338  15.200  12.703 -0.0105  0.0556  0.0436
29750W        W33348   2.102  10.111   0.509  0.0760 -0.2158 -0.1125
29751W        W33349  16.303   3.855   2.439  0.1705 -0.2112 -0.2134
29752W        W33350   4.203   0.577  13.207  0.0069  0.1301 -0.0318
29753W        W33351   5.959   3.727   3.612 -0.1880 -0.0370  0.1653
29754W        W33352  13.448   1.830   0.105 -0.1750 -0.0891  0.0043
29755W        W33353   0.718  15.711   3.134  0.2222 -0.3612  0.0431
29756W        W33354  15.566  11.329   5.611 -0.2174 -0.0775 -0.0087
29757W        W33355  10.953  11.314   7.646  0.0358  0.1569 -0.2947
29758W        W33356   2.547   2.061  12.769  0.2432  0.3382  0.1721
29759W        W33357  15.774  14.964   9.033 -0.1175  0.2592  0.0887
29760W        W33358  11.485   7.551  12.973 -0.3980 -0.0153 -0.2546
29761W        W33359   8.504   4.473   4.711 -0.1823  0.0158  0.1819
29762W        W33360   0.526   4.647  12.995  0.0120  0.4338  0.0453
29763W        W33361  13.513  11.503   0.697  0.0718 -0.0406  0.0269
29764W        W33362  11.715  10.215  14.177  0.1094  0.1885  0.1480
29765W        W33363  13.057   8.447   1.305 -0.1959  0.0060  0.3075
29766W        W33364   5.069   0.864   1.309 -0.1070 -0.2984  0.0316
29767W        W33365   9.943  12.220  16.118  0.0760  0.1546  0.1977
29768W        W33366   0.946  10.783   5.016  0.2451 -0.2671 -0.2729
29769W        W33367  16.307   3.110   6.220 -0.1197 -0.0449 -0.0598
29770W        W33368  15.461  15.356   5.270 -0.2583 -0.0257  0.1457
29771W        W33369  13.493  14.289   1.938  0.2588 -0.0102 -0.0246
29772W        W33370   6.757  13.291   0.816 -0.0553  0.0746 -0.0638
29773W        W33371   0.810   7.624  12.224 -0.1313 -0.0384  0.0417
29774W        W33372  15.752   7.172   3.077 -0.1543 -0.3781 -0.2133
29775W        W33373   4.701  11.473  13.174  0.0602  0.1156 -0.2949
29776W        W33374  11.849   2.885  13.352  0.0423  0.1130 -0.0568
29777W        W33375   5.244  11.515   2.476  0.0106 -0.0014 -0.2507
29778W        W33376   1.129   0.366   7.212 -0.0240  0.0942  0.3634
29779W        W33377   9.999  10.021  11.623 -0.0961  0.0553  0.2720
29780W        W33378   7.442  16.085  11.470 -0.3366 -0.2134 -0.3059
29781W        W33379  14.784  14.362  10.669  0.0051 -0.1374 -0.0991
29782W        W33380   5.464   2.505  15.519  0.0186 -0.3743 -0.0306
29783W        W33381  14.568  10.750   7.698 -0.2682  0.1770  0.0701
29784W        W33382   3.862   6.997   2.128  0.3804 -0.0540 -0.1256
29785W        W33383   8.246  15.214   3.092 -0.2926  0.0903 -0.0901
29786W        W33384   6.378  15.365   8.485 -0.0631 -0.0841  0.1668
29787W        W33385   1.098   1.535   0.422  0.2057 -0.2735 -0.1274
29788W        W33386  15.102  12.073   3.650  0.0637  0.2107 -0.2036
29789W        W33387   7.690   1.133  14.442  0.2435 -0.0167  0.0430
29790W        W33388   4.841   5.632   9.533  0.1164  0.2658  0.0957
29791W        W33389   9.913   6.784   5.280  0.2102 -0.1057  0.0547
29792W        W33390   1.700   6.855  12.555  0.1484 -0.1510 -0.0730
29793W        W33391  14.294   2.724   1.125  0.1710  0.2051  0.0208
29794W        W33392  11.457   4.725   2.725  0.1910  0.2368  0.0895
29795W        W33393   3.404  12.253  12.651  0.0631 -0.0141  0.0377
29796W        W33394   2.436   8.133  15.799 -0.1799 -0.2197  0.4756
29797W        W33395  10.776  10.064   0.611 -0.0551 -0.1356  0.0468
29798W        W33396   7.821  13.490   6.255 -0.0545  0.1233  0.5187
29799W        W33397  16.065   5.922   8.648 -0.0580  0.1766  0.4266
29800W        W33398   7.503   1.689   6.896 -0.0547 -0.0535  0.0344
29801W        W33399   1.073   1.343   9.466 -0.3157 -0.0152  0.3406
29802W        W33400  15.001  10.689   0.939 -0.0964 -0.1103 -0.1785
29803W        W33401   7.974   4.553   2.023 -0.1953 -0.0462  0.0212
29804W        W33402  11.726  10.764   1.717 -0.1606 -0.0006  0.0975
29805W        W33403   8.914  10.808   2.971 -0.0691  0.3390 -0.1524
29806W        W33404   4.033  12.731   6.766 -0.0006 -0.0007  0.0142
29807W        W33405   2.019  15.717   0.834  0.1625  0.1577 -0.1913
29808W        W33406   2.571   1.595   0.227 -0.0497 -0.0306  0.0325
29809W        W33407   9.156   8.229   1.919 -0.0275 -0.2553 -0.0378
29810W        W33408   2.674   5.644  15.455 -0.1589  0.2259 -0.1599
29811W        W33409   2.485   6.356   7.041  0.2283 -0.0424 -0.4503
29812W        W33410  11.950   5.524  11.756  0.2103 -0.0693  0.0762
29813W        W33411   8.712  10.755  13.268 -0.1842  0.0096 -0.3426
29814W        W33412   4.999   4.993   8.546  0.1265  0.1496  0.0122
29815W        W33413  12.057   9.881   1.754 -0.1686  0.1088 -0.0973
29816W        W33414   1.721   4.177  11.712 -0.2064  0.1028 -0.0091
29817W        W33415   6.882  10.295  10.397 -0.1342 -0.0068  0.1656
29818W        W33416   4.051   1.844   2.348 -0.2617 -0.0791  0.2707
29819W        W33417   9.907   7.396  15.553  0.2818  0.0355  0.0251
29820W        W33418  10.435  14.225   8.010 -0.1317 -0.0217 -0.2846
29821W        W33419   2.162   6.819   3.036 -0.1487  0.3997 -0.2317
29822W        W33420  13.116   2.865   0.502 -0.0039  0.1647 -0.0545
29823W        W33421  10.421  16.304   6.179  0.1493  0.0987 -0.0998
29824W        W33422   8.851   6.601   3.078  0.1699  0.1532 -0.0959
29825W        W33423  12.092   0.111   8.768 -0.2630  0.0147 -0.1050
29826W        W33424  10.895   4.477  14.359 -0.0086 -0.2019 -0.0578
29827W        W33425   6.451   7.816  10.818  0.1634  0.0051 -0.3579
29828W        W33426   2.057   2.353   9.853 -0.0228 -0.2542  0.0898
29829W        W33427  15.704  15.416  11.677 -0.1822 -0.0858 -0.1429
29830W        W33428  14.178   8.838   4.819 -0.1057  0.1937 -0.0091
29831W        W33429  12.882   6.511   8.877  0.3314 -0.2793  0.0363
29832W        W33430   7.587  10.269  13.098 -0.0270  0.1787 -0.3570
29833W        W33431   3.795   1.099   9.712 -0.2243  0.0367  0.0707
29834W        W33432   1.248  15.855   5.194  0.1429  0.2061 -0.1071
29835W        W33433  15.689   8.616   1.385 -0.0258  0.1849  0.2293
29836W        W33434   8.694   8.352   3.700 -0.0228  0.2495  0.1395
29837W        W33435  16.249  13.192  13.726  0.1988 -0.0807 -0.1662
29838W        W33436  12.204  14.842  16.101  0.0643 -0.1263  0.0197
29839W        W33437   3.140   1.584  10.785 -0.0155 -0.0184 -0.0233
29840W        W33438   6.823  11.323   3.535  0.0728 -0.1553  0.0421
29841W        W33439   4.337  12.886  15.977  0.1242 -0.1075  0.2373
29842W        W33440   2.581   7.204   0.245 -0.1019  0.1284  0.0297
29843W        W33441   4.024  13.530  10.202  0.0698  0.1923 -0.4159
29844W        W33442  14.690   1.620   2.519 -0.2066 -0.1137  0.0366
29845W        W33443   6.874  15.215  14.245  0.2032  0.1498 -0.2753
29846W        W33444   6.736  11.355  11.674 -0.2031  0.0996  0.1313
29847W        W33445  13.807  13.873  14.724  0.1880  0.0417  0.3220
29848W        W33446   0.645   4.660  13.487 -0.0079 -0.1136 -0.0853
29849W        W33447  12.715  10.109   3.092 -0.0231 -0.2049  0.2516
29850W        W33448   8.902  10.560  13.771 -0.1792 -0.0929  0.0583
29851W        W33449   0.077  13.754  15.009  0.1569 -0.2167  0.0702
29852W        W33450   8.160  11.217  10.967  0.0993 -0.0710 -0.0170
29853W        W33451   1.729  15.943   0.438  0.0167  0.0637  0.0365
29854W        W33452  15.188   1.910  11.553 -0.2332  0.0191 -0.0217
29855W        W33453   8.325  12.373  14.849 -0.0305  0.1465  0.0158
29856W        W33454  12.160   8.636   0.350 -0.3127 -0.1313  0.2568
29857W        W33455   0.659   2.864  11.223  0.1563 -0.3204  0.0177
29858W        W33456   1.461  10.096   0.317 -0.1235 -0.0160  0.2703
29859W        W33457   3.818  11.274   2.914 -0.1894 -0.0689  0.0705
29860W        W33458   3.523   0.689   8.718  0.2216 -0.0373 -0.0114
29861W        W33459   4.317   7.892   4.062  0.1083 -0.1398  0.0768
29862W        W33460  12.379   2.111   2.063 -0.0031  0.3043 -0.0303
29863W        W33461  13.935  10.623   7.969 -0.2629  0.0464  0.0127
29864W        W33462  12.446  10.394  12.085  0.1536 -0.0599 -0.1409
29865W        W33463   0.487  13.221   0.397  0.1018 -0.0653  0.0232
29866W        W33464  13.769  10.123  15.002  0.1728  0.0661 -0.1228
29867W        W33465   6.128   0.746   3.112  0.2043 -0.1121 -0.1455
29868W        W33466   5.849  14.968  13.015  0.1137 -0.0478  0.2308
29869W        W33467   9.098   4.035   8.652 -0.3809 -0.0132 -0.0359
29870W        W33468   8.371  14.223   6.144 -0.1535  0.1626 -0.1489
29871W        W33469  10.450  14.215   6.553  0.0428 -0.1523  0.0512
29872W        W33470   9.362  11.597  10.507 -0.1079 -0.0744 -0.0528
29873W        W33471  14.176   7.942  14.157 -0.2494 -0.1817  0.0083
29874W        W33472  11.368   9.314   4.687  0.2714 -0.0751 -0.0847
29875W        W33473  14.095   4.371   0.241  0.0103  0.2006 -0.0727
29876W        W33474   0.040  15.265   4.180  0.0551  0.1219 -0.0713
29877W        W33475   5.897   7.426   3.754  0.3457 -0.1067  0.0916
29878W        W33476   6.832  14.736   7.913  0.0979  0.1367 -0.0417
29879W        W33477   5.614  14.636  12.213 -0.1658  0.1489  0.1673
29880W        W33478   4.834  13.925   6.305 -0.0819  0.0944 -0.1893
29881W        W33479  13.907   0.279   3.354 -0.0670 -0.0196  0.0252
29882W        W33480   4.270  14.785   9.392 -0.5257  0.0762 -0.0876
29883W        W33481   6.214  11.012  10.060  0.2219 -0.0431 -0.0875
29884W        W33482  16.260  13.597   4.827  0.0230 -0.0696  0.0465
29885W        W33483   0.339   0.207   9.078 -0.0638 -0.1284 -0.2307
29886W        W33484  15.697  14.426   6.171  0.1398 -0.0150  0.0508
29887W        W33485   8.504   8.555   9.014  0.1298  0.2832  0.1200
29888W        W33486   4.065  15.599   1.560  0.1209 -0.2289  0.3975
29889W        W33487  12.773  12.805   3.377 -0.1143 -0.1988  0.0348
29890W        W33488   4.844  12.520   5.384  0.0361  0.0355 -0.1751
29891W        W33489  14.915  10.322   9.334  0.2916  0.0785 -0.1499
29892W        W33490   6.808  12.154  12.672 -0.0707 -0.0951  0.0090
29893W        W33491  15.584   4.944   3.038 -0.1874  0.2631 -0.1760
29894W        W33492   9.328   6.897  16.242 -0.0864  0.0091 -0.1463
29895W        W33493   0.777   9.639   2.872 -0.1713 -0.0441 -0.0558
29896W        W33494   3.175   7.457   1.605 -0.0636 -0.2282 -0.0920
29897W        W33495   9.345   1.651   4.874 -0.1060 -0.1829 -0.0110
29898W        W33496   2.647   7.228   3.840 -0.0218  0.2744  0.0569
29899W        W33497  12.296  12.728   8.577 -0.1933  0.3035 -0.2902
29900W        W33498   9.165  12.144   7.970  0.0394 -0.0352 -0.2781
29901W        W33499   7.690  13.580   0.836 -0.0871 -0.1515  0.2333
29902W        W33500  14.849   9.880  12.980 -0.1849  0.4151 -0.4429
29903W        W33501  11.416  11.842   9.007  0.0520 -0.0708  0.2162
29904W        W33502   9.499   1.040  11.350  0.1781  0.0458  0.1056
29905W        W33503   7.143   4.372  14.271  0.1441 -0.0188  0.1581
29906W        W33504  13.312   8.609   8.867  0.0514 -0.0052 -0.1419
29907W        W33505  16.158   6.151   2.890  0.0256  0.0937 -0.0394
29908W        W33506   5.958  13.013   6.341 -0.2446  0.1477  0.1306
29909W        W33507   3.766  13.106   8.241  0.1979 -0.0575 -0.0501
29910W        W33508  10.329   3.300  12.587 -0.1580 -0.0444 -0.1135
29911W        W33509   5.982   3.853  13.675  0.0309  0.3863  0.2376
29912W        W33510  11.408   3.579   9.393  0.0066  0.2437  0.0351
29913W        W33511  10.519  10.855   0.364  0.0405 -0.0024  0.0902
29914W        W33512   4.745  14.051   7.513  0.1076 -0.0321  0.0452
29915W        W33513   8.523  12.509  11.195  0.1147 -0.1778 -0.1849
29916W        W33514   1.419  10.612   5.209  0.2133  0.0461  0.0657
29917W        W33515   0.320   3.372  13.097 -0.0470  0.1626  0.0576
29918W        W33516   3.076  13.018  15.186  0.1589 -0.2089 -0.1741
29919W        W33517   3.375   9.552  14.531 -0.0388  0.1525 -0.0043
29920W        W33518  13.871   4.450  12.509  0.1420  0.4373 -0.1507
29921W        W33519   4.011   5.075   5.960 -0.1583 -0.1263  0.2858
29922W        W33520   7.109   1.880  15.376 -0.2701  0.2715 -0.1696
29923W        W33521   9.110   7.547   6.979  0.4074  0.5528 -0.1492
29924W        W33522  10.597  14.357   2.467  0.1463 -0.1168  0.0785
29925W        W33523   2.417   7.644  14.734 -0.1577 -0.0648 -0.2219
29926W        W33524  10.566  14.217   0.164  0.2051  0.2892  0.4559
29927W        W33525   3.395   3.396  15.088  0.0631  0.0214 -0.1545
29928W        W33526   7.870   1.139   6.429 -0.1168  0.0279  0.0907
29929W        W33527   5.760   2.859  13.525  0.1224  0.0384  0.0547
29930W        W33528   4.988   1.985   7.922 -0.0306  0.4885 -0.2136
29931W        W33529  13.407   8.559  14.202  0.0032  0.2444  0.0580
29932W        W33530   0.273  14.109   0.746 -0.0702  0.0925 -0.0753
29933W        W33531   1.435   2.566  12.260  0.2820  0.2565 -0.4059
29934W        W33532   6.744   2.491   7.807 -0.0257  0.2652 -0.3488
29935W        W33533   0.679   5.160  10.556  0.0764  0.0290 -0.1188
29936W        W33534   8.337   0.583   9.954 -0.3984  0.0569 -0.3167
29937W        W33535   4.893  14.807   4.807  0.2105 -0.2326  0.0974
29938W        W33536  13.903  15.329   5.795  0.0119  0.0023 -0.0633
29939W        W33537   4.998  13.234   3.444  0.0273  0.0183  0.1699
29940W        W33538  14.853   9.605  15.847 -0.0706 -0.0074 -0.0411
29941W        W33539   0.151  12.138  13.168 -0.0265 -0.0894  0.0868
29942W        W33540  16.384   5.249   9.239 -0.1142  0.1518  0.0204
29943W        W33541  15.459  13.658   9.463  0.2406  0.0692  0.3482
29944W        W33542  12.897   9.718   6.143  0.0636  0.2069  0.1562
29945W        W33543   8.729  13.546   0.214  0.0511 -0.1032  0.0799
29946W        W33544   0.667   3.481   4.997  0.1495 -0.1935  0.0601
29947W        W33545   5.784   4.847   7.297 -0.0589 -0.0329 -0.2585
29948W        W33546  12.115  15.460  11.489 -0.1632  0.0190 -0.0748
29949W        W33547   4.800  14.737   3.576  0.1145  0.0453  0.1254
29950W        W33548   5.389   4.464   1.376  0.0467 -0.3307  0.0134
29951W        W33549   3.165  11.392   3.713  0.0638  0.2144 -0.0495
29952W        W33550   4.053  10.558   1.321 -0.1784  0.1322 -0.0933
29953W        W33551  12.289  12.567   9.382 -0.2667  0.0407 -0.1551
29954W        W33552  15.131   1.531  10.986  0.1520 -0.0864 -0.3733
29955W        W33553   4.773   4.970  13.667 -0.1276 -0.0260  0.0130
29956W        W33554  13.769  10.702   1.446 -0.2978  0.3322 -0.2533
29957W        W33555   4.631   2.778  13.452  0.0154 -0.1731  0.0514
29958W        W33556  10.240   9.507   2.742  0.0392 -0.0299  0.0087
29959W        W33557  10.516  14.362   4.243 -0.0602  0.0853  0.2161
29960W        W33558   7.483   1.988  13.953 -0.0021  0.2321 -0.3113
29961W        W33559   0.283  12.344  15.474 -0.1595 -0.3161 -0.0194
29962W        W33560  15.635   7.668  14.312 -0.2662  0.2169 -0.1862
29963W        W33561  11.393   2.604   7.900  0.0279 -0.0733  0.0459
29964W        W33562   2.620   2.963   4.522  0.0924 -0.0013 -0.0389
29965W        W33563   0.354   2.335   1.020  0.4727  0.0713  0.0329
29966W        W33564   9.040   4.622  13.224  0.2976  0.1994  0.3312
29967W        W33565   3.237   9.015  11.660  0.3142 -0.1847 -0.1244
29968W        W33566  16.339   0.223  14.052 -0.1636 -0.4436 -0.2460
29969W        W33567   7.740   3.143   3.934  0.0820  0.0712  0.0584
29970W        W33568  10.163   3.525  16.042 -0.0283  0.0300 -0.0802
29971W        W33569   2.924   3.332   1.751  0.0299  0.1305 -0.1883
29972W        W33570   9.739  11.043  14.707  0.0452 -0.1824  0.3525
29973W        W33571   6.342  15.652  16.138  0.2713 -0.3216 -0.2031
29974W        W33572   8.236   9.710   9.040  0.0783 -0.1814  0.4452
29975W        W33573   5.187  13.857  12.291 -0.1814  0.0331  0.1749
29976W        W33574  16.138   0.046   4.395  0.0361  0.0034 -0.0098
29977W        W33575   4.498  11.908  14.962 -0.1443  0.0418 -0.0684
29978W        W33576   4.977  14.376   9.191 -0.0212  0.1680  0.2463
29979W        W33577   9.262  16.370  10.463 -0.1596 -0.2554 -0.1770
29980W        W33578   4.107   9.198   5.124 -0.0605 -0.0290 -0.1996
29981W        W33579   0.596  11.924   6.798  0.0050  0.0697 -0.1982
29982W        W33580  15.121   6.791  13.362  0.2404  0.1032  0.0444
29983W        W33581   7.019   8.202   9.023  0.3284 -0.0887  0.1699
29984W        W33582   2.836   5.721  14.180 -0.0898 -0.0365 -0.1575
29985W        W33583  14.574   9.706  14.608  0.1538 -0.5497 -0.2723
29986W        W33584   7.860   2.143   1.487 -0.1584 -0.1592  0.1372
29987W        W33585   6.390  14.772   9.250  0.0628  0.1096 -0.1345
29988W        W33586  10.877  11.430  12.639  0.0553 -0.2654 -0.1485
29989W        W33587   0.040   7.152   5.248  0.3074  0.0981 -0.0165
29990W        W33588  14.549   8.348   0.985 -0.2046  0.2885 -0.0801
29991W        W33589   9.532  11.566   5.690 -0.0503 -0.0058 -0.1746
29992W        W33590  11.563  15.656  16.321  0.0619  0.2014  0.2783
29993W        W33591  13.792   0.401   0.388 -0.3092 -0.0150 -0.0541
29994W        W33592   4.717   8.638  13.039  0.3011  0.0719  0.0839
29995W        W33593   5.395  15.415   6.802  0.2375  0.2884 -0.0171
29996W        W33594   9.632  14.860   4.103 -0.1123 -0.0624  0.2398
29997W        W33595   3.610   6.482   8.417 -0.0502 -0.5572 -0.2267
29998W        W33596   2.776   6.619   7.768 -0.1939  0.1370 -0.3459
29999W        W33597   4.795  13.394  13.259  0.0477  0.2758 -0.0784
30000W        W33598   9.423   6.035   1.486 -0.1332 -0.0432 -0.0025
30001W        W33599   5.912  12.923   9.940  0.1209  0.0154 -0.3100
30002W        W33600  12.611   0.142  10.064  0.1151  0.0628 -0.3018
30003W        W33601  10.935  16.317  10.894  0.0191 -0.1412 -0.0252
30004W        W33602   1.448  16.012  13.491 -0.1027 -0.1741 -0.0840
30005W        W33603   5.076   3.587   8.164 -0.2036 -0.1307  0.3778
30006W        W33604   7.683   9.398   4.845 -0.0446  0.0572  0.1886
30007W        W33605   5.999   6.881  10.725 -0.4062 -0.1411  0.1972
30008W        W33606   2.159  12.436  10.378 -0.2217 -0.3185 -0.3451
30009W        W33607  12.464   6.458   0.702  0.0062  0.3037 -0.1229
30010W        W33608   4.285  15.391   7.078  0.1817 -0.2351 -0.0489
30011W        W33609   5.871  12.577   0.535 -0.2187  0.2753 -0.2594
30012W        W33610   7.790   2.777  12.268  0.3064 -0.0674 -0.4370
30013W        W33611   7.315   9.815   5.440  0.1600 -0.1144 -0.2864
30014W        W33612  11.811   1.182   3.225 -0.1409  0.0609 -0.2285
30015W        W33613   0.237   8.522   9.860 -0.2499  0.1262 -0.1517
30016W        W33614   7.544  10.266   1.831 -0.0539  0.0546  0.1857
30017W        W33615   8.564  10.627   6.857  0.1409 -0.0969  0.2796
30018W        W33616   3.276   0.722  15.788  0.1904  0.0620  0.0967
30019W        W33617   1.244  14.977   7.521  0.0019 -0.0918  0.0944
30020W        W33618   6.779   6.691  15.731 -0.0285 -0.2420  0.4071
30021W        W33619   3.233  15.516  12.037 -0.0699 -0.0479  0.1030
30022W        W33620  10.033   5.619   8.447  0.1177 -0.0945  0.0159
30023W        W33621   9.415   7.752  13.898 -0.0054  0.1797  0.2172
30024W        W33622   6.715  10.033  14.245 -0.0244  0.2084  0.0830
30025W        W33623  15.458   8.140  13.234 -0.1023 -0.0565  0.0220
30026W        W33624   7.007   7.002   8.372  0.0574 -0.1351 -0.0850
30027W        W33625   3.278  12.464  11.335 -0.1003 -0.0893  0.3098
30028W        W33626   9.826  12.770  16.263 -0.2069  0.1416  0.1591
30029W        W33627   0.782   5.443   3.157 -0.0914 -0.0196  0.0062
30030W        W33628   2.387  16.089  12.938 -0.3479 -0.0077  0.0541
30031W        W33629   0.587  13.060   0.910 -0.0888 -0.0569  0.3951
30032W        W33630   0.114  13.723   8.359  0.1753  0.2885  0.1895
30033W        W33631   4.110   6.063   5.889 -0.1906 -0.0945  0.0232
30034W        W33632   7.036   3.009   1.781  0.0292 -0.0900  0.2415
30035W        W33633  11.099  10.420   6.080 -0.0048 -0.0749  0.3586
30036W        W33634   4.858   4.312  11.429 -0.2268  0.0635  0.0004
30037W        W33635   1.025   1.539   1.699 -0.0334  0.1557  0.2422
30038W        W33636   2.138   4.703  16.352  0.0162 -0.1734  0.0544
30039W        W33637   4.346  15.125   0.469 -0.2229  0.2549  0.2799
30040W        W33638   7.082  13.020   7.757 -0.1684 -0.2877 -0.2988
30041W        W33639   9.967  10.834  13.276 -0.0673 -0.1117 -0.2442
30042W        W33640  15.072   3.991   7.308  0.0062 -0.1556 -0.0522
30043W        W33641  15.921   0.842   7.667  0.1829  0.1098 -0.0574
30044W        W33642  15.144   3.796  11.125 -0.0605 -0.1040 -0.3168
30045W        W33643  11.849   3.982   9.399  0.0247  0.0560 -0.0390
30046W        W33644  10.091  12.190   9.830 -0.0302 -0.0248  0.3104
30047W        W33645  15.580  15.462  10.755 -0.0142  0.0987  0.0245
30048W        W33646   3.656  11.612   3.824  0.1006 -0.2449 -0.2318
30049W        W33647   7.938   1.251  11.530 -0.2558  0.0835  0.1280
30050W        W33648   9.900   2.193  16.360 -0.0936 -0.1553 -0.0085
30051W        W33649   9.473  12.654   2.316 -0.0320 -0.0352  0.1292
30052W        W33650  10.291   7.655   7.858  0.1784 -0.3126 -0.2443
30053W        W33651   4.776   7.835   6.220  0.0745  0.0451 -0.0247
30054W        W33652   3.811  15.788   1.952 -0.0700 -0.2489 -0.1342
30055W        W33653  14.156   0.722   7.092 -0.2110  0.0170 -0.0866
30056W        W33654  10.326   7.703   8.479  0.1585  0.3473 -0.0658
30057W        W33655   5.449   8.487  14.774 -0.1323  0.2093 -0.3866
30058W        W33656   9.310   4.177   5.145  0.0609 -0.0869 -0.0400
30059W        W33657  13.949  13.343   8.006 -0.1127  0.1539 -0.2133
30060W        W33658   9.335  13.906  14.129  0.3654  0.0681  0.1100
30061W        W33659   5.961  15.070   6.123  0.0945 -0.2500  0.0536
30062W        W33660  15.336   4.976   0.658  0.1251 -0.2445 -0.1713
30063W        W33661   7.006   6.424  13.220 -0.1408  0.2011 -0.0172
30064W        W33662   7.059  15.812   5.951  0.2932  0.1405  0.2237
30065W        W33663  16.389  10.956   1.792 -0.2115 -0.3748  0.0256
30066W        W33664   9.122  10.360  13.347  0.4583 -0.1688  0.4843
30067W        W33665  14.276   2.534  12.992  0.3466  0.0052  0.2121
30068W        W33666   6.531  15.133   1.581 -0.4049 -0.2580  0.1575
30069W        W33667   9.071   0.919  12.616 -0.0952  0.0923 -0.1612
30070W        W33668  13.434   2.528   7.968  0.1415  0.1493 -0.2354
30071W        W33669   4.287   5.675  12.707 -0.1213  0.0342  0.1429
30072W        W33670   9.177   3.757   2.043  0.0628 -0.0187 -0.1824
30073W        W33671  13.838  13.993   4.200  0.1702 -0.0050  0.1079
30074W        W33672  13.058  12.698  16.158  0.0648  0.1242  0.1082
30075W        W33673   8.427   1.029   2.577 -0.2026  0.1497 -0.4850
30076W        W33674  10.556   1.114  10.468 -0.0619  0.3744  0.0894
30077W        W33675   0.178   1.960   5.266 -0.0219 -0.2040 -0.2126
30078W        W33676   1.536   2.742  13.403  0.2298 -0.0048  0.0844
30079W        W33677   6.370   8.167   5.273  0.0849 -0.4372 -0.0516
30080W        W33678   4.756   9.884   1.260  0.0868  0.0122  0.0162
30081W        W33679   3.831   8.461   7.602  0.0831 -0.1382 -0.0794
30082W        W33680   2.967  12.625   0.191  0.2368 -0.1961 -0.2465
30083W        W33681  15.535   6.115   0.744  0.0182 -0.0388 -0.0712
30084W        W33682   7.623   0.204   3.493  0.1613 -0.1458  0.0808
30085W        W33683   3.330   4.432   4.785  0.2460  0.0488 -0.2975
30086W        W33684  10.882  14.487   3.815  0.1989 -0.2016 -0.1253
30087W        W33685  10.361   3.786  12.379 -0.1611 -0.0725  0.2452
30088W        W33686  10.620   6.090   7.621  0.1245  0.0894 -0.0447
30089W        W33687  11.402   6.126   9.747  0.1129  0.0062  0.0559
30090W        W33688   0.419   5.326  12.605 -0.2163 -0.0231 -0.0605
30091W        W33689  11.910   5.601   7.499  0.1328 -0.1180 -0.0507
30092W        W33690   8.442   3.655  16.200  0.1885 -0.0783 -0.1018
30093W        W33691  10.857   6.920   6.831 -0.0958 -0.2924 -0.1291
30094W        W33692  15.029  13.050   7.740 -0.0783  0.1243 -0.0913
30095W        W33693  16.088  13.891  10.806 -0.2633  0.3465  0.1126
30096W        W33694   4.859  13.026   1.263 -0.4600  0.4388  0.0378
30097W        W33695   4.530   2.631  14.206 -0.3364 -0.0525 -0.3053
30098W        W33696  10.933   7.914  14.675  0.1468 -0.0746 -0.0534
30099W        W33697  14.549   7.484   7.989 -0.1293 -0.1102 -0.0722
30100W        W33698  13.742   1.052   5.222 -0.1555 -0.4293 -0.1266
30101W        W33699   7.615   1.926  10.121 -0.3552 -0.0094 -0.0310
30102W        W33700  15.445  12.831  16.123 -0.0658  0.2378 -0.0475
30103W        W33701   2.558   1.685  14.122  0.1286 -0.0483 -0.1181
30104W        W33702   3.654  12.701   6.472  0.0076 -0.3066 -0.1787
30105W        W33703   1.051   8.232   4.430  0.1354 -0.0577  0.1538
30106W        W33704   6.583  14.858   4.406 -0.0414 -0.1111  0.1323
30107W        W33705   6.888   2.709   0.423  0.0257  0.1763  0.0277
30108W        W33706  14.404   0.643   3.852  0.0933 -0.1170 -0.3663
30109W        W33707   5.179  13.498   8.374  0.0468  0.0001 -0.1091
30110W        W33708   7.779   6.045   2.630 -0.1753  0.1464  0.1014
30111W        W33709   4.531   4.082   2.859  0.4241 -0.2117  0.1502
30112W        W33710  11.661   0.844   1.837 -0.1708  0.3297 -0.0736
30113W        W33711   8.520   8.736   1.975  0.0542 -0.1606  0.1569
30114W        W33712   1.266   7.163   7.962  0.0685  0.0377  0.2015
30115W        W33713  12.376  15.848  10.736  0.3071 -0.1817 -0.1203
30116W        W33714   3.266   7.597  12.059  0.0104 -0.2083  0.0147
30117W        W33715  11.015  11.393  14.011  0.1770 -0.0090 -0.0681
30118W        W33716   7.575  13.268   9.214 -0.0743  0.0119  0.1960
30119W        W33717   3.627  12.660  14.588  0.0320 -0.2685 -0.1985
30120W        W33718   9.380   3.178   9.108 -0.5081  0.1748  0.1978
30121W        W33719  12.685  16.007   8.306 -0.1765 -0.0745 -0.3580
30122W        W33720  13.678   9.848   0.241 -0.1780 -0.2089  0.0490
30123W        W33721  14.089   2.626   1.556 -0.0674  0.0776 -0.3051
30124W        W33722   1.583  11.785   9.824 -0.1162 -0.2445 -0.2691
30125W        W33723   5.692   4.179   3.501 -0.0011 -0.2814 -0.2557
30126W        W33724  10.470  15.991   6.960  0.0888  0.2514 -0.1915
30127W        W33725   1.109   9.869   5.917 -0.3178 -0.0767  0.2421
30128W        W33726   8.283  14.733  14.737 -0.0358  0.0183 -0.5152
30129W        W33727  14.045   6.139   0.130 -0.0527  0.3537  0.1172
30130W        W33728  12.413  10.238  14.878 -0.1264 -0.0573 -0.2426
30131W        W33729  13.374   5.229  15.348  0.0545  0.1951 -0.3072
30132W        W33730  13.684  14.478   0.673 -0.1192  0.0884 -0.1370
30133W        W33731   7.536  14.203  13.199 -0.4840 -0.1394  0.1509
30134W        W33732  16.384   8.523  14.481 -0.1860  0.1013 -0.0457
30135W        W33733   7.490   4.498   4.237  0.0440 -0.0719 -0.2989
30136W        W33734   0.066   7.353   1.500  0.1354  0.1283 -0.1066
30137W        W33735   9.676   5.037   3.606  0.0563  0.0752 -0.0208
30138W        W33736   3.910  13.680  10.661  0.1208  0.0365 -0.4921
30139W        W33737   2.039   9.948   4.788  0.0763 -0.1316  0.2426
30140W        W33738   7.386  10.205  10.576  0.0356  0.0299  0.1651
30141W        W33739   2.679   6.070  15.132  0.2177  0.1137  0.0117
30142W        W33740   8.861   9.777  10.145 -0.3482 -0.1966  0.0938
30143W        W33741  10.708  13.377   5.123 -0.3024  0.3324  0.0188
30144W        W33742  11.606   4.392  11.260 -0.0111 -0.2442 -0.0204
30145W        W33743   6.485   8.759   7.764 -0.0736  0.2242 -0.1270
30146W        W33744  10.112  13.273  13.239  0.0663 -0.1995 -0.0385
30147W        W33745  13.300  11.557   5.518  0.2197  0.1162 -0.2499
30148W        W33746   7.409   9.793  13.262  0.2278 -0.0243 -0.2404
30149W        W33747   7.346   6.297  11.253  0.0765  0.1103 -0.0558
30150W        W33748   1.355   0.126   7.607  0.3040 -0.1663 -0.2038
30151W        W33749   8.853  12.355   7.534  0.0905  0.0074  0.1490
30152W        W33750  14.970  16.191   1.240  0.4371 -0.0161  0.1133
30153W        W33751   5.128   1.125  10.644 -0.0245 -0.1152  0.1423
30154W        W33752  13.199  15.940   5.069  0.1833  0.1462 -0.0810
30155W        W33753   3.018   1.899   9.832 -0.2885  0.0154 -0.1042
30156W        W33754   9.667   0.065   2.084 -0.0074  0.1614  0.1457
30157W        W33755  14.378  10.148  12.864  0.3255  0.0515  0.1211
30158W        W33756   7.627   8.135  12.282  0.0067 -0.1408  0.2458
30159W        W33757   2.013  11.454   4.722 -0.1139 -0.1345 -0.0135
30160W        W33758   0.446  14.286  15.653  0.0412  0.2498 -0.2310
30161W        W33759   9.053  12.472   9.339  0.4706 -0.0145  0.1734
30162W        W33760  10.220  14.850   9.363 -0.1153 -0.0302  0.1439
30163W        W33761  12.892   1.568  10.394  0.3688  0.0541 -0.1236
30164W        W33762  15.823   9.853  16.120 -0.1406  0.0053 -0.0221
30165W        W33763  13.841  10.753  10.014  0.1780  0.1627  0.3168
30166W        W33764  12.253   7.677   3.266  0.3085 -0.1540 -0.2262
30167W        W33765  15.089   9.849   6.262  0.2453  0.2100 -0.3674
30168W        W33766   3.356   5.072   7.896 -0.0900 -0.1687 -0.0906
30169W        W33767   8.453   2.007   2.261  0.1264  0.0488 -0.1301
30170W        W33768  10.939   7.725  15.159  0.3896  0.0009  0.1423
30171W        W33769  10.744   6.656  10.147 -0.1263 -0.0365 -0.2216
30172W        W33770   7.784  13.727  15.179  0.0415 -0.2547  0.0073
30173W        W33771   5.251  15.124  12.541  0.0382 -0.0468  0.3471
30174W        W33772  12.621   0.719   2.061  0.0699  0.0880 -0.2769
30175W        W33773   6.524   5.882   5.492  0.0192 -0.3380 -0.2951
30176W        W33774   8.672   3.028   4.740  0.1142  0.2343  0.2958
30177W        W33775   0.024   6.828   9.268  0.0664  0.2057  0.0577
30178W        W33776   8.850   2.980  13.978 -0.1202  0.0621  0.1620
30179W        W33777   7.243   0.370  16.206  0.4759  0.2617 -0.0753
30180W        W33778   8.244   9.084   9.995  0.0209  0.0163 -0.0098
30181W        W33779   0.667   9.933   9.625 -0.0096  0.0030 -0.0892
30182W        W33780  16.141  10.051   0.554 -0.1528  0.1388  0.1271
30183W        W33781   3.542   8.716   9.013  0.1132 -0.2523  0.0837
30184W        W33782   0.400   5.463   4.982  0.0442 -0.1383  0.1157
30185W        W33783   2.422  12.992   2.046  0.0110  0.3566 -0.1503
30186W        W33784   2.550   8.636   1.537  0.1214 -0.0528  0.1415
30187W        W33785   5.805  12.639   0.042  0.0293  0.2198  0.4402
30188W        W33786   4.374   3.018   0.073 -0.4223 -0.3490 -0.1782
30189W        W33787  15.787   1.332   6.255  0.0046 -0.0297 -0.0388
30190W        W33788   1.068  16.219   2.077 -0.1370 -0.1660  0.1901
30191W        W33789  13.184  13.746   8.009 -0.0347 -0.0413  0.1465
30192W        W33790  13.918  16.220   5.109  0.4472  0.1314  0.3806
30193W        W33791   7.304  10.645   9.137  0.1079 -0.2633 -0.0989
30194W        W33792   8.963   3.281   5.085  0.4503 -0.0782 -0.0582
30195W        W33793   1.564   4.208   6.046  0.0938 -0.0376  0.2315
30196W        W33794  11.873   3.327   3.697  0.2281  0.2285  0.0166
30197W        W33795  11.098   7.672  16.135 -0.1078  0.0199 -0.0522
30198W        W33796   4.338   2.148   5.290  0.2093  0.3423  0.1683
30199W        W33797  10.305   6.919   7.513 -0.0741 -0.1214 -0.0129
30200W        W33798   4.538  11.357   2.861  0.1442  0.0742  0.0981
30201W        W33799  15.674   0.273  12.472 -0.0132  0.1372  0.0826
30202W        W33800   2.383  12.505  15.593 -0.2069  0.1691  0.1427
30203W        W33801   3.298  12.839  12.158  0.2397  0.2170 -0.2499
30204W        W33802  12.580   0.110  15.364 -0.3149 -0.0674 -0.1444
30205W        W33803  10.981   9.646   4.518 -0.3298  0.0265 -0.0864
30206W        W33804   7.612   0.714   1.342 -0.0113  0.0918  0.0584
30207W        W33805  10.762  13.834   2.508 -0.1511 -0.0079  0.3477
30208W        W33806   3.731   5.850  15.391  0.0130  0.3086  0.0174
30209W        W33807   1.690   7.244  11.346 -0.0113  0.2059  0.0608
30210W        W33808  16.213   4.779   9.447  0.2311 -0.0859 -0.1011
30211W        W33809  13.576  14.262   8.722  0.0767 -0.0918  0.1604
30212W        W33810  14.401  16.096   0.467  0.1867 -0.0988 -0.1643
30213W        W33811  10.624  13.974   5.026  0.1281  0.0044 -0.4154
30214W        W33812   8.610  10.948  10.304 -0.1504  0.1494  0.1372
30215W        W33813  12.290   9.589  11.657  0.1049 -0.1335 -0.1383
30216W        W33814   1.277   5.699   4.848  0.2194 -0.2838  0.0084
30217W        W33815  11.128  12.301   6.538  0.0357 -0.1821  0.0760
30218W        W33816   1.753   2.662   7.588 -0.4007 -0.1963  0.1151
30219W        W33817   5.398   6.684   0.013  0.1132 -0.0549 -0.2527
30220W        W33818   2.254   1.403  16.223  0.3575 -0.0796 -0.2115
30221W        W33819   8.481  13.466   0.679  0.1014  0.2235 -0.4257
30222W        W33820  13.940   1.737  15.524 -0.0303 -0.1047 -0.3312
30223W        W33821   5.444   8.878   6.830  0.0261  0.3983  0.1191
30224W        W33822   5.788   1.021   0.621 -0.0449  0.1291 -0.0267
30225W        W33823   3.077   7.724   5.592 -0.1782  0.4491  0.0450
30226W        W33824   4.303   7.061  13.126  0.0146 -0.0881 -0.3285
30227W        W33825   3.122  15.081   7.596  0.4244 -0.1559  0.0505
30228W        W33826   4.967   2.074   5.784  0.1713 -0.1174  0.0195
30229W        W33827  12.606  15.970   0.753 -0.0006 -0.1260  0.1835
30230W        W33828   9.623   0.433  15.114 -0.0988 -0.1229  0.2983
30231W        W33829   7.615  16.075  15.080 -0.1843  0.3675 -0.2019
30232W        W33830  11.388  12.463  11.697  0.0341 -0.1534 -0.1106
30233W        W33831   2.134  13.192  14.390  0.0040 -0.2341  0.0275
30234W        W33832  15.437   8.389  12.786 -0.2111  0.0147  0.0552
30235W        W33833   4.452  13.378   8.411 -0.2174 -0.0534  0.0043
30236W        W33834  12.985   0.956  15.335  0.4050  0.0011  0.1017
30237W        W33835  12.962   4.855  15.549  0.0512 -0.0399  0.0016
30238W        W33836   5.904   2.195  11.892  0.0844 -0.3049  0.2211
30239W        W33837  15.918   8.538   1.947  0.1287  0.1478  0.2485
30240W        W33838   2.525  12.979   3.137  0.3561 -0.1880 -0.0949
30241W        W33839   4.733   0.736  13.267 -0.2494  0.0043 -0.1121
30242W        W33840   4.094  13.032   9.415  0.2281  0.1787  0.0563
30243W        W33841  14.456   0.765  15.398 -0.1700  0.1428  0.0072
30244W        W33842   7.358   1.526   3.055  0.0841  0.0638 -0.0545
30245W        W33843  14.529   8.682  12.037 -0.0327 -0.0264 -0.1209
30246W        W33844  11.999   7.439   8.468 -0.0060  0.1782  0.0052
30247W        W33845   7.858  11.019   2.638 -0.1408 -0.3981 -0.1141
30248W        W33846  10.755   0.155   1.906 -0.1136  0.0566 -0.2936
30249W        W33847   1.744  10.978  12.975 -0.1096  0.2214 -0.0060
30250W        W33848  15.014   6.599   8.391  0.1227 -0.0624  0.0301
30251W        W33849  12.360  14.299  14.301 -0.2045  0.1072  0.1791
30252W        W33850   7.260   8.143  12.891  0.0834  0.2299  0.1223
30253W        W33851  16.206  14.014   0.926  0.0296 -0.0074 -0.3134
30254W        W33852  16.053  12.684  13.691 -0.0409  0.1112 -0.0162
30255W        W33853  11.537   5.485  13.645  0.0594  0.1452 -0.3150
30256W        W33854   4.428  10.168  13.212 -0.0741 -0.5469 -0.1141
30257W        W33855   9.173  12.086   5.601 -0.2136 -0.2415 -0.0636
30258W        W33856  12.240   9.242   4.288 -0.3467 -0.0297  0.0721
30259W        W33857   5.610   5.583   5.406  0.0953 -0.0901 -0.2367
30260W        W33858   7.924   3.858   9.610 -0.1997 -0.2648 -0.2219
30261W        W33859   4.529   0.557   0.564  0.2215  0.1123  0.0430
30262W        W33860  13.269  14.989   0.062  0.1461  0.0304  0.1168
30263W        W33861   2.770   7.128   7.802 -0.3503  0.1464 -0.0138
30264W        W33862   8.021  16.112   2.045 -0.0077 -0.0977  0.0061
30265W        W33863   2.229   8.281   4.519 -0.2851 -0.2058  0.0693
30266W        W33864  11.574  10.968   2.152 -0.2063  0.0706  0.0548
30267W        W33865   6.872   9.128  11.939 -0.1016  0.1787 -0.0251
30268W        W33866   6.811   8.895  14.293  0.1189 -0.0467 -0.1396
30269W        W33867  16.162   3.781  14.094  0.0538  0.0259  0.0566
30270W        W33868   1.624   3.064   1.335  0.4534 -0.4209 -0.1159
30271W        W33869   0.465  14.277   6.485  0.1949  0.1629  0.2053
30272W        W33870   4.180  15.959  13.250  0.0699  0.2223 -0.0058
30273W        W33871   4.630   4.279   7.552 -0.1376 -0.2049 -0.0691
30274W        W33872  16.369  15.860  14.955 -0.1213  0.3163  0.1482
30275W        W33873   1.814   6.627  10.560 -0.0734 -0.5677  0.1173
30276W        W33874   7.484   2.366   3.721  0.1560 -0.2635  0.4000
30277W        W33875  15.293  15.810  10.471 -0.0645  0.0443 -0.1226
30278W        W33876   6.808  12.553  12.407  0.0328 -0.5344  0.0301
30279W        W33877  13.856  10.580   7.104 -0.1855  0.1988  0.4234
30280W        W33878   3.825  10.581  12.042  0.3205  0.1876  0.2681
30281W        W33879  15.722  10.488  15.357 -0.3042 -0.0089  0.0880
30282W        W33880  11.762  11.820   2.199  0.0517  0.5164  0.1032
30283W        W33881   6.799   8.301  12.847  0.1853  0.1723  0.0719
30284W        W33882   9.959  10.386   3.815  0.0990  0.3481 -0.3034
30285W        W33883   4.817  13.197  11.684 -0.0065  0.4020  0.1541
30286W        W33884  10.418   7.152  11.520 -0.2496 -0.0525  0.1378
30287W        W33885   7.842   0.575   6.749 -0.2766 -0.1216  0.1867
30288W        W33886   5.164   5.767  13.233  0.0803 -0.1747 -0.0166
30289W        W33887   2.807   2.952   2.446 -0.0630 -0.1910  0.0035
30290W        W33888   1.765   9.940   8.208  0.0565 -0.2066 -0.0443
30291W        W33889   6.225  11.585  10.261 -0.4359  0.0419  0.1481
30292W        W33890   6.953   3.955  13.585  0.0668 -0.1655 -0.3427
30293W        W33891  15.549  12.306  12.810 -0.2186 -0.4584 -0.0647
30294W        W33892   6.921  12.340   0.534 -0.1640 -0.1682  0.0675
30295W        W33893  13.198   8.822   9.400  0.0294 -0.2780 -0.0570
30296W        W33894   9.254  12.248   1.891  0.2038 -0.0043 -0.1914
30297W        W33895   0.172  11.106   2.632  0.0855  0.4613 -0.1426
30298W        W33896   4.422  13.660  15.470  0.0715 -0.0463 -0.0814
30299W        W33897  14.310   4.135   1.398 -0.3087 -0.0388 -0.0486
30300W        W33898   0.765   7.926   8.105  0.3593 -0.0380  0.2595
30301W        W33899   4.289   7.636   4.930  0.5098  0.0740  0.1478
30302W        W33900  16.335   4.363  11.775 -0.0280 -0.0114  0.1624
30303W        W33901  12.914  16.133  10.220  0.1058 -0.3056  0.2520
30304W        W33902  12.740  14.137   4.178  0.0764 -0.4681  0.1179
30305W        W33903   4.195  14.423   5.894  0.0815 -0.1719  0.2171
30306W        W33904   3.618   6.762   5.866  0.1761  0.0998  0.0573
30307W        W33905   9.988  10.037   6.799 -0.3147 -0.1245  0.0252
30308W        W33906   7.760   0.773  11.246  0.0095 -0.0343  0.1468
30309W        W33907   7.915   0.622   3.193 -0.3545  0.2374 -0.3075
30310W        W33908   1.062   1.956  10.449 -0.0907 -0.0694 -0.1804
30311W        W33909   8.675   4.152  16.066 -0.1207  0.2092 -0.2052
30312W        W33910  11.224   6.441   1.345 -0.1570 -0.1715  0.0381
30313W        W33911   1.048  15.458   6.216 -0.0131  0.1872  0.1306
30314W        W33912  12.506   8.772   8.534 -0.3231  0.0550  0.1628
30315W        W33913   0.746  11.720   3.072 -0.1770  0.1691  0.2020
30316W        W33914   8.340   5.110   6.577  0.1883  0.1911 -0.0219
30317W        W33915   4.546  11.530  15.493  0.0182 -0.1873  0.2024
30318W        W33916  10.803  11.934  15.245  0.1167 -0.1209  0.0099
30319W        W33917  10.770   7.568   6.049  0.2942 -0.1105  0.0697
30320W        W33918   6.910  13.563   8.677  0.0244  0.2788 -0.0304
30321W        W33919   3.698   9.875  16.373  0.0245  0.0651  0.2145
30322W        W33920   8.736  10.531  11.194 -0.0306  0.1082 -0.0349
30323W        W33921   8.516  15.368  15.776 -0.4455  0.0257 -0.1126
30324W        W33922   9.080  12.498   3.119 -0.0504 -0.0190  0.1132
30325W        W33923   0.766  13.014  15.885 -0.2529  0.0273  0.2496
30326W        W33924   0.112   0.450  16.317  0.2947  0.2536 -0.1082
30327W        W33925   3.116   8.740   8.462  0.3930 -0.2994  0.2945
30328W        W33926   4.325  13.621   8.897  0.0847 -0.2101  0.1483
30329W        W33927  14.026   4.998  13.028  0.0223  0.1277 -0.2716
30330W        W33928  15.329  14.957   0.532  0.0978 -0.3656 -0.2956
30331W        W33929  16.097   7.704  14.197  0.3209  0.2634  0.2127
30332W        W33930  14.783   4.052   0.718  0.2458 -0.1426  0.0308
30333W        W33931   9.365   1.623   3.822  0.1899  0.0851  0.1642
30334W        W33932   8.496   3.770  14.345 -0.1366 -0.0532  0.0716
30335W        W33933  11.692   3.088  12.887 -0.3149  0.2522  0.0748
30336W        W33934  11.179  12.223   9.197  0.0400  0.1799 -0.0148
30337W        W33935  13.191  13.612   6.392  0.0352 -0.0849 -0.2234
30338W        W33936   4.365  10.170   9.871  0.1344 -0.2647 -0.1864
30339W        W33937   3.995   4.323  12.293  0.1417  0.0095  0.0856
30340W        W33938   5.974   2.282   7.909  0.1043 -0.0500 -0.0548
30341W        W33939  10.149  13.466   1.360  0.3724 -0.0471 -0.3157
30342W        W33940  12.752   9.228   1.467  0.2077 -0.2110 -0.0464
30343W        W33941  10.501  15.153   3.552  0.1826  0.2425  0.4522
30344W        W33942   9.266   8.970   5.686  0.0824  0.0845  0.1417
30345W        W33943   5.920   0.835   6.452 -0.0020  0.0509  0.0474
30346W        W33944   8.869  15.163   3.988 -0.0008  0.0465  0.0363
30347W        W33945  15.619   2.965   5.545 -0.1416 -0.0459 -0.0215
30348W        W33946  14.589   1.632  14.103  0.1078 -0.4333 -0.0579
30349W        W33947  15.027  11.493   4.659  0.1781 -0.0861 -0.1355
30350W        W33948   6.108  11.091   6.985 -0.1933 -0.2418  0.0260
30351W        W33949  12.434  15.518   2.374  0.1817  0.0701 -0.2043
30352W        W33950  12.424  11.332   1.862 -0.1450  0.3265  0.2068
30353W        W33951   4.528  12.546   3.637 -0.1763 -0.0596  0.1508
30354W        W33952   7.931  11.499   1.444 -0.3353  0.0808  0.0713
30355W        W33953   2.881  13.464   9.772  0.1037  0.1995  0.1531
30356W        W33954   3.014  16.052   5.974  0.0463 -0.2336 -0.0623
30357W        W33955   8.253   5.520   2.316  0.3134 -0.0724 -0.2250
30358W        W33956  15.651   1.537  16.353 -0.3139  0.0612 -0.0538
30359W        W33957  12.090   7.388   4.639 -0.1995  0.0137  0.0265
30360W        W33958  11.823   8.358   3.771 -0.2230  0.1339 -0.1103
30361W        W33959  14.083   0.021  15.406  0.0107  0.0766  0.0353
30362W        W33960  13.256   6.621   8.105  0.1401 -0.2193  0.0868
30363W        W33961   2.909   0.261   8.390 -0.0394  0.1571  0.0643
30364W        W33962   6.471   3.387  15.347  0.0916 -0.4204  0.1147
30365W        W33963  13.153  14.803   9.229 -0.0151 -0.1137  0.4866
30366W        W33964   3.652  12.637   1.790  0.0822  0.0357  0.1226
30367W        W33965  12.385   2.161   8.581 -0.0662 -0.0242 -0.1391
30368W        W33966   0.136   0.014   0.826  0.3185  0.0794  0.0676
30369W        W33967   3.581  15.398  13.801 -0.0733 -0.1259  0.0993
30370W        W33968   1.696  14.022   6.767  0.1809 -0.0363 -0.1619
30371W        W33969  10.167   2.233  13.609  0.0806  0.0109 -0.0355
30372W        W33970   4.112  11.047  11.868  0.0722 -0.1649 -0.0963
30373W        W33971   6.427   5.109  14.923 -0.0211 -0.0353  0.3384
30374W        W33972   2.368   2.107  11.144 -0.0399  0.0207  0.1433
30375W        W33973  14.694   1.329   8.118  0.0304  0.1825  0.1369
30376W        W33974   4.489   3.682  14.033 -0.1719 -0.0183 -0.3590
30377W        W33975  13.152   7.587  16.388 -0.0054  0.3317 -0.4815
30378W        W33976   4.494  12.861   2.606 -0.4848  0.0989  0.0642
30379W        W33977   4.472  13.953   5.768 -0.1009  0.0727 -0.1144
30380W        W33978   1.124  14.045  12.616 -0.0633 -0.1159 -0.0954
30381W        W33979  14.172  15.055  14.713  0.1354 -0.1590 -0.2127
30382W        W33980  11.488   3.692   3.208  0.2057  0.1043  0.3958
30383W        W33981   3.101  15.121  14.287 -0.0679 -0.1620 -0.1658
30384W        W33982   3.493   1.225  10.920  0.4172  0.1733  0.1462
30385W        W33983  11.779  13.625   6.796  0.0962 -0.3510  0.2655
30386W        W33984  10.832  13.364  14.592  0.0198  0.1901  0.0460
30387W        W33985  14.336   7.648   2.603 -0.3431  0.1148  0.0020
30388W        W33986   7.952  13.861   7.364 -0.2050 -0.5136 -0.3406
30389W        W33987   7.815   3.209   9.956  0.0555 -0.2441 -0.0282
30390W        W33988   2.652   1.177   0.536 -0.1272 -0.1347 -0.1065
30391W        W33989  14.719  15.307   3.625  0.0118  0.2319  0.1824
30392W        W33990   9.503  15.991  11.388  0.0578  0.0182  0.0113
30393W        W33991  10.781   8.908  14.252  0.0745 -0.0534 -0.0458
30394W        W33992   1.151  10.791  13.796 -0.0137  0.2690 -0.1519
30395W        W33993  14.647  13.787  12.696 -0.2244 -0.0779  0.2112
30396W        W33994   2.325  11.191   2.036  0.0142  0.0489 -0.2236
30397W        W33995  16.213   2.246   6.657 -0.0381  0.0415  0.1827
30398W        W33996  11.921   4.142   6.948 -0.0582 -0.0561 -0.0462
30399W        W33997   4.779   0.206  13.325  0.0228 -0.0105  0.0903
30400W        W33998  11.636   3.741   1.755  0.1032  0.0475 -0.0500
30401W        W33999   0.452   3.458   4.353 -0.1508  0.1238 -0.2490
30402W        W34000   8.604   4.431   0.210  0.2991 -0.2463 -0.0543
30403W        W34001  14.873   1.117  11.113  0.0402 -0.0065  0.2623
30404W        W34002   4.473  15.580  13.094  0.0845  0.0474  0.1410
30405W        W34003   3.720   0.621  16.082 -0.1227 -0.3462 -0.4832
30406W        W34004   5.375   9.204  16.084  0.1092 -0.3259 -0.2856
30407W        W34005   7.447  11.409   1.570  0.0370  0.3076  0.1820
30408W        W34006   3.724   1.783   6.084 -0.0802 -0.1569 -0.0221
30409W        W34007  10.117   3.326   0.627  0.2933  0.1748  0.1188
30410W        W34008   1.905   4.032   4.685 -0.0688 -0.2116 -0.3406
30411W        W34009   0.591  14.886   5.804  0.2330  0.3794  0.0993
30412W        W34010   3.517   2.012  13.709 -0.0120 -0.1391 -0.3248
30413W        W34011   6.874   1.911  11.773 -0.1402 -0.0335 -0.0254
30414W        W34012  13.599   6.916  12.613  0.1690  0.0357  0.2106
30415W        W34013   7.235   2.701  16.012  0.1578  0.1474 -0.1104
30416W        W34014   6.516   9.257   9.796 -0.0893 -0.0901  0.1687
30417W        W34015  14.519   5.172   9.280  0.0358  0.0079  0.1480
30418W        W34016   6.235   3.212   6.909 -0.1095  0.2869 -0.1432
30419W        W34017  13.834  10.223  12.335 -0.1227  0.0712  0.2132
30420W        W34018   4.149   7.711   1.264  0.1855 -0.3236 -0.2860
30421W        W34019  13.135  13.151  13.528 -0.0311  0.4926 -0.1337
30422W        W34020  16.001  13.894   6.221  0.2232 -0.0064  0.0539
30423W        W34021   9.613   9.879  10.916 -0.1793 -0.0111  0.1975
30424W        W34022  13.897  16.252  15.943  0.2666 -0.1361  0.3987
30425W        W34023   5.296   1.205  12.684  0.1462 -0.0595  0.0866
30426W        W34024  11.501  13.981   6.380 -0.0168 -0.4234  0.0596
30427W        W34025   8.932   9.603  14.751 -0.1473 -0.0432 -0.2174
30428W        W34026  10.247   1.031   7.118  0.0443 -0.1417 -0.1520
30429W        W34027   1.703  14.673   9.212 -0.2437 -0.1082 -0.0237
30430W        W34028   4.362   5.476  14.610 -0.2953 -0.0075  0.1889
30431W        W34029  10.972  13.514   9.505  0.0007 -0.1375  0.0536
30432W        W34030   4.593   9.114   5.090  0.0022 -0.1509  0.4155
30433W        W34031   6.732   6.822   7.081 -0.0442 -0.1239 -0.1511
30434W        W34032  15.370   1.102  13.562  0.1958  0.0393  0.2348
30435W        W34033  10.183   6.419   7.862 -0.1150  0.0672  0.2340
30436W        W34034  12.703  12.541   2.932  0.1032  0.1288 -0.2465
30437W        W34035   0.505   6.334   3.577 -0.0145 -0.1235 -0.0372
30438W        W34036   4.963   5.771  11.300  0.0766  0.1123  0.2637
30439W        W34037  11.022   2.315   7.043 -0.4328 -0.0285 -0.2618
30440W        W34038   1.803  14.845  11.210 -0.2117  0.0100 -0.1499
30441W        W34039   8.688  15.736  13.629 -0.2212  0.0339  0.0618
30442W        W34040  14.052  11.571  15.975  0.0166  0.0538 -0.1501
30443W        W34041   1.949   0.944  10.908  0.2969  0.0276 -0.1202
30444W        W34042  14.982   7.328  15.832  0.0569 -0.0101 -0.1076
30445W        W34043   6.173   4.486   7.072 -0.2694  0.1232  0.2147
30446W        W34044   9.383   1.853  15.127 -0.0721 -0.0492  0.1098
30447W        W34045  15.516  15.695   6.635  0.1837 -0.2537  0.0948
30448W        W34046  16.204  14.598  15.560  0.1050  0.0594  0.3057
30449W        W34047   3.806   6.181  14.975 -0.3248  0.4520  0.0550
30450W        W34048   2.307   6.387   2.855 -0.0615 -0.3473 -0.0951
30451W        W34049  14.846   7.351   6.293 -0.4047 -0.0123  0.2540
30452W        W34050  13.196   8.940   1.406  0.0648 -0.0080 -0.2571
30453W        W34051   1.961  15.984  12.037 -0.1492  0.1834 -0.1419
30454W        W34052  14.953   7.538   8.488  0.2963  0.1139 -0.0561
30455W        W34053   1.195   3.483  15.704  0.0298  0.1434 -0.0082
30456W        W34054  10.932   0.672  13.667 -0.0869  0.2243  0.2362
30457W        W34055   9.308   5.285  16.030  0.1700  0.2548  0.4975
30458W        W34056  10.629   2.843   8.622 -0.3596 -0.0414 -0.0421
30459W        W34057   9.575   1.243   5.048  0.1351  0.0418  0.2742
30460W        W34058   3.283   2.305   3.178  0.3759 -0.2882  0.2717
30461W        W34059  15.758   7.230   7.422  0.0920  0.0669  0.0976
30462W        W34060  15.131   1.985   9.757  0.1105  0.4182 -0.0331
30463W        W34061   5.498  14.632  14.119 -0.2310 -0.2853  0.0328
30464W        W34062  10.339  12.294  10.677 -0.3228 -0.1304 -0.0596
30465W        W34063  13.992  12.453   1.965 -0.0288 -0.2988  0.2590
30466W        W34064   6.476  15.571   7.458 -0.0364  0.0826 -0.4583
30467W        W34065  15.468  10.057   4.811 -0.1422  0.2437 -0.0459
30468W        W34066  15.800  15.458   4.647  0.1341 -0.0492  0.1208
30469W        W34067   1.942   1.035  11.444 -0.4387  0.2738 -0.0288
30470W        W34068   0.701  15.098  14.906  0.1861  0.1149  0.0500
30471W        W34069   8.406  16.367   4.749 -0.1650 -0.0624  0.0917
30472W        W34070   8.607   2.923  15.386 -0.3425  0.0182  0.1152
30473W        W34071   9.015   6.888   9.869  0.1079  0.1765 -0.1767
30474W        W34072   6.683   2.214   2.447  0.1083  0.0357  0.1787
30475W        W34073  14.170   0.658  13.104 -0.0260  0.0190 -0.3467
30476W        W34074   2.923  13.630   2.362  0.1520  0.1198  0.0558
30477W        W34075  10.379   7.626   2.482  0.1794  0.2407  0.1824
30478W        W34076   7.870  15.580   7.275 -0.0320 -0.1180  0.1841
30479W        W34077   1.095  12.324   0.980  0.0453 -0.1481  0.0932
30480W        W34078  12.692  15.644  16.110 -0.0861 -0.2062 -0.1143
30481W        W34079   2.454   9.590   2.889  0.2033 -0.0001  0.0342
30482W        W34080   8.353  13.454  15.687  0.2289 -0.1029 -0.2757
30483W        W34081  14.090   8.625   8.555  0.0534  0.2561  0.0961
30484W        W34082   9.823  11.360  14.137 -0.2139  0.0763  0.0863
30485W        W34083   8.190   4.054   5.949  0.0655  0.3968  0.4566
30486W        W34084  14.508  10.939   1.831 -0.1417  0.1983  0.3073
30487W        W34085   9.126   0.007   0.868  0.1512  0.0259  0.3307
30488W        W34086  14.375   7.967  10.896  0.0441 -0.2013  0.1957
30489W        W34087   2.674   6.130   7.703 -0.1016 -0.1703  0.1436
30490W        W34088   7.752   7.249   0.829  0.1636  0.1375 -0.0954
30491W        W34089   7.072   4.836  12.791 -0.0711  0.2794  0.2914
30492W        W34090  10.823   6.822  15.070  0.0002 -0.1549 -0.0940
30493W        W34091   9.995   1.113  10.410  0.2372  0.0368 -0.2180
30494W        W34092  11.302  13.693   7.424  0.1769  0.4417 -0.1462
30495W        W34093  14.761   1.851   3.437 -0.0540 -0.1637 -0.0368
30496W        W34094   6.411   2.602   2.181 -0.1961 -0.1828 -0.0508
30497W        W34095  14.251   3.471   1.823 -0.0610 -0.0337 -0.3147
30498W        W34096   8.971   3.814  15.862 -0.3257 -0.0534  0.3323
30499W        W34097  14.458   3.807   3.227 -0.2933  0.2172 -0.0569
30500W        W34098   3.628   2.179   8.539  0.1426  0.0220  0.0125
30501W        W34099  11.464  14.802   8.698 -0.1336  0.2075 -0.1501
30502W        W34100  15.423  11.005  12.480 -0.1495 -0.1253  0.0163
30503W        W34101   4.444  15.910   1.498  0.1255  0.1147  0.1177
30504W        W34102  15.701   4.857   5.712 -0.1024  0.3678 -0.1959
30505W        W34103  12.954   8.804   4.105  0.3441 -0.0549 -0.1314
30506W        W34104  15.136   7.140   5.434  0.0003  0.2451  0.0465
30507W        W34105  15.627   9.234   4.956  0.2066 -0.0511 -0.1235
30508W        W34106  13.688  13.383  14.989 -0.1516  0.0670  0.0343
30509W        W34107   8.333  13.461   7.553 -0.2202 -0.0451 -0.1402
30510W        W34108   2.058   5.993   4.504  0.1282  0.0851  0.1006
30511W        W34109   5.371  10.038   4.176 -0.1867 -0.3989  0.3122
30512W        W34110   7.358   4.982  12.090 -0.1948 -0.1718  0.0429
30513W        W34111   1.775  12.908   1.339  0.0259 -0.0593 -0.2020
30514W        W34112  10.491   7.027  12.613 -0.0680 -0.2494  0.0069
30515W        W34113  10.688  14.863   4.051 -0.1746  0.0645  0.0050
30516W        W34114   2.155   0.002  16.095 -0.0942  0.0089 -0.1286
30517W        W34115  11.653   3.059   4.353 -0.2724  0.1225 -0.1390
30518W        W34116   1.495  11.490   3.708 -0.3134  0.2796 -0.1012
30519W        W34117  15.729   0.776   3.880 -0.4640  0.1591  0.2515
30520W        W34118  11.521   2.826  12.476  0.2159 -0.3733 -0.2800
30521W        W34119  15.433   2.626   3.612  0.2083 -0.0839  0.4048
30522W        W34120   8.871   4.081   9.921 -0.0041 -0.1086  0.1803
30523W        W34121   3.821   8.230   8.220 -0.2348 -0.2555 -0.0464
30524W        W34122  13.564   3.174   2.372 -0.0009  0.2240 -0.1739
30525W        W34123   5.103  12.890  12.013 -0.2117 -0.2060 -0.0265
30526W        W34124   7.635   1.056  15.451 -0.0241 -0.0879  0.2706
30527W        W34125   3.216  13.757   1.044 -0.0398  0.0057  0.2186
30528W        W34126  10.447   7.507  10.837  0.1123  0.0768 -0.1837
30529W        W34127   5.434   3.957   6.090 -0.1810 -0.3472  0.2761
30530W        W34128  14.285   5.917   9.334  0.2937 -0.0064 -0.2248
30531W        W34129  10.164  12.178   6.495 -0.0832  0.1068 -0.1383
30532W        W34130   7.657   9.932  11.308  0.1557  0.0831 -0.0598
30533W        W34131   8.546  12.252   5.662 -0.1131 -0.0699  0.1867
30534W        W34132   4.740  10.203   8.468 -0.1402  0.1277 -0.0449
30535W        W34133   4.616   4.539  11.097  0.0255  0.0724  0.2854
30536W        W34134  13.795  15.389   6.970 -0.0685 -0.0654  0.0160
30537W        W34135   0.659  11.606  15.972  0.1075  0.0143  0.1957
30538W        W34136  10.021   7.991   1.741  0.1165  0.0982 -0.1103
30539W        W34137  10.241   1.450  10.694 -0.1023  0.0837 -0.4805
30540W        W34138  10.114   5.886   1.744  0.0652  0.0042 -0.0593
30541W        W34139  13.722  11.794  12.261 -0.2242  0.0724 -0.2120
30542W        W34140   5.781  10.975  14.917  0.0641 -0.0501 -0.1276
30543W        W34141   2.236   2.643   4.501 -0.0239  0.0763 -0.0282
30544W        W34142   0.053  15.723   8.222 -0.2015  0.4010  0.2655
30545W        W34143   0.358  12.016   3.666 -0.3240  0.0964 -0.4290
30546W        W34144  11.331   5.852   5.039  0.2103 -0.1056  0.1393
30547W        W34145  15.742  11.293  14.246 -0.1825 -0.3067 -0.0634
30548W        W34146  15.140   1.931   7.419 -0.0962 -0.0892 -0.1858
30549W        W34147   5.076   1.591   7.570  0.1238 -0.0743  0.0391
30550W        W34148   9.677  13.677   1.575  0.1244 -0.0873  0.1765
30551W        W34149   8.816  13.266  13.486 -0.1462 -0.1584 -0.2393
30552W        W34150  14.685   3.929   7.688  0.0409 -0.1300 -0.0206
30553W        W34151   0.469  15.458  11.030 -0.1519 -0.0648  0.1622
30554W        W34152   3.114   0.298   0.198  0.1630 -0.0328 -0.1226
30555W        W34153  12.151   5.694   5.390 -0.0375 -0.3855 -0.1751
30556W        W34154   6.586  10.928  13.986  0.1690  0.2457  0.1260
30557W        W34155   9.427   1.097  13.027 -0.1380  0.2645 -0.3296
30558W        W34156   7.776   6.186  11.506 -0.1493 -0.0267  0.0472
30559W        W34157   0.999  14.436   9.866  0.2029  0.0609 -0.1307
30560W        W34158  15.593   4.095  11.811  0.1396 -0.3845 -0.3292
30561W        W34159  14.426   7.102  16.043  0.0062  0.1092  0.2017
30562W        W34160   2.252   3.932  13.660  0.0906 -0.1376 -0.2088
30563W        W34161   5.806   8.000  13.515  0.2107 -0.0629 -0.0787
30564W        W34162   7.653  15.271  14.283 -0.0428 -0.0937 -0.1917
30565W        W34163   7.109  15.314   4.508  0.0694 -0.0210 -0.2260
30566W        W34164   1.642   8.130  14.202 -0.2438  0.0970 -0.1308
30567W        W34165  12.574  12.409  13.047 -0.1646 -0.0629  0.2718
30568W        W34166   8.017  15.100  15.131 -0.1466  0.1006  0.2484
30569W        W34167  12.915  14.157   8.701  0.1369 -0.0236  0.1222
30570W        W34168  15.816  13.747   2.127 -0.2318 -0.1000  0.0731
30571W        W34169   6.103   8.729  13.088  0.0228 -0.1862 -0.5008
30572W        W34170   8.808   1.903  15.678  0.2705  0.0425  0.0576
30573W        W34171   3.145   9.124   7.816 -0.2210  0.1373  0.1045
30574W        W34172   6.778   6.416   6.834  0.2004 -0.0997  0.0388
30575W        W34173  15.271   2.651   0.698 -0.0124 -0.0473  0.1510
30576W        W34174   1.338  14.809  15.778  0.3617 -0.0059 -0.0910
30577W        W34175   8.409  14.915  15.952  0.0922 -0.3748 -0.0177
30578W        W34176   8.699   4.010  12.208 -0.0183  0.1397  0.2060
30579W        W34177   8.556   4.303   0.696  0.2967  0.2355 -0.0822
30580W        W34178  11.846   9.116   0.447 -0.0980  0.1496 -0.0425
30581W        W34179   6.425   0.885   5.924  0.0639  0.1106  0.0348
30582W        W34180   0.311   2.069  13.436 -0.1519 -0.1221  0.0977
30583W        W34181  10.991   2.212   1.285 -0.4641  0.0901 -0.2259
30584W        W34182   3.173   0.565   5.648  0.0352  0.5572  0.0382
30585W        W34183   0.208   4.193   8.970 -0.0592 -0.5122 -0.0016
30586W        W34184  13.253   8.275   7.442 -0.0992  0.1002 -0.2665
30587W        W34185   7.672   0.169  14.897 -0.0738 -0.3734 -0.0190
30588W        W34186  10.610  14.221   5.459  0.1812 -0.0402 -0.3301
30589W        W34187  13.489  10.523   3.086 -0.1128  0.1252 -0.1596
30590W        W34188   8.165   5.228  11.414 -0.0169  0.0758  0.2083
30591W        W34189   0.634   5.807  13.917  0.1113  0.0346  0.0134
30592W        W34190  13.660   0.200   6.331 -0.1173  0.3600 -0.2282
30593W        W34191   4.286   4.144   7.173 -0.0623 -0.3359  0.0746
30594W        W34192  10.504   2.970   1.563 -0.2898 -0.1482 -0.1115
30595W        W34193  10.326   0.687  11.356 -0.0590  0.0781  0.2628
30596W        W34194  12.042   1.387  11.162 -0.1535  0.1805 -0.0311
30597W        W34195   4.154   5.532  14.157 -0.2156 -0.0821 -0.1576
30598W        W34196  15.348  15.456   2.202  0.0558 -0.3526 -0.1102
30599W        W34197   8.039   6.991  14.938 -0.0818 -0.1224 -0.0188
30600W        W34198  15.467   8.513   6.126 -0.3332  0.0932  0.0043
30601W        W34199   2.391   5.482  14.675  0.1059  0.1328 -0.0602
30602W        W34200   5.884   0.414   9.411 -0.1623 -0.0889  0.3235
30603W        W34201   6.927   8.602   5.264 -0.0608 -0.2582  0.0728
30604W        W34202  11.536   7.021  10.187 -0.1581  0.1459 -0.2065
30605W        W34203   5.762  11.184  16.326  0.1888  0.0669  0.6453
30606W        W34204   4.175   4.034   2.389 -0.0568  0.0490  0.2826
30607W        W34205   6.725   6.940  13.437 -0.0810  0.0126 -0.2011
30608W        W34206   8.255   2.228  14.583  0.0249  0.1610 -0.1919
30609W        W34207   0.287   9.815  10.279  0.0054 -0.3062  0.0820
30610W        W34208   5.062  15.135  10.854 -0.1519  0.3006 -0.1317
30611W        W34209   3.130  10.135   2.934 -0.2411  0.1111 -0.2203
30612W        W34210   6.366   9.256   1.495 -0.2487  0.1207 -0.0985
30613W        W34211   6.839   1.505   3.870 -0.1554 -0.0841  0.1677
30614W        W34212   2.284   1.016  12.705  0.2836 -0.1065  0.1525
30615W        W34213  15.210  10.476  11.697  0.2919  0.1980 -0.2375
30616W        W34214  13.952  13.251  12.997 -0.1185  0.0525  0.4267
30617W        W34215  13.920   6.804   5.364 -0.2254 -0.0815  0.0141
30618W        W34216  10.566   2.345   8.379  0.0032 -0.1069 -0.0323
30619W        W34217  15.842   1.033  13.447  0.2774  0.0530  0.0337
30620W        W34218   9.640  12.623  14.225 -0.0429  0.0352  0.0164
30621W        W34219  15.142  15.828   8.030 -0.0284  0.0367  0.1194
30622W        W34220  15.820   8.999  10.394 -0.2352  0.2505  0.3485
30623W        W34221   8.509   3.844   7.943 -0.1984 -0.0226  0.0491
30624W        W34222   6.486   5.260   2.199 -0.0852  0.1448  0.0588
30625W        W34223   2.667  16.178   7.454 -0.2116  0.1443 -0.2150
30626W        W34224   3.863  12.722   4.183 -0.2139 -0.1605  0.1361
30627W        W34225   0.259   5.194   0.174 -0.0889  0.3069  0.1625
30628W        W34226  16.169   0.112  13.553 -0.0670 -0.2058 -0.0199
30629W        W34227   3.241   9.518   4.088 -0.1853  0.1295  0.1632
30630W        W34228   7.859   6.961   4.962 -0.0884 -0.0404  0.0389
30631W        W34229   5.561   0.235   0.676  0.0665  0.0958 -0.0807
30632W        W34230   6.034  11.570   4.430  0.1673  0.0094 -0.4440
30633W        W34231  14.897   1.162   4.307 -0.0548  0.3136  0.3422
30634W        W34232   0.429   4.790  14.844 -0.0511 -0.2099  0.0077
30635W        W34233  15.929   7.847   8.207  0.0823  0.0249 -0.2436
30636W        W34234   9.087   2.578  13.935  0.1456  0.0253 -0.4211
30637W        W34235   0.522   7.457   5.317  0.2784 -0.2113 -0.2855
30638W        W34236   1.562  10.224   7.359  0.0351 -0.0425  0.1943
30639W        W34237   8.586   2.067  14.201 -0.1394  0.0476  0.0816
30640W        W34238  14.097   6.700  13.359  0.0509  0.1459  0.0270
30641W        W34239  15.656   0.233  11.223 -0.0274 -0.1309 -0.1286
30642W        W34240   1.223   5.666  12.236  0.3309  0.0616 -0.1722
30643W        W34241   0.917  15.275   5.738  0.1242  0.0730 -0.3718
30644W        W34242  13.061   0.985   2.532 -0.1731  0.3729  0.0013
30645W        W34243  12.948  14.675   8.201  0.0442  0.3327 -0.1803
30646W        W34244   2.214   1.532   8.231  0.0201 -0.0979 -0.0177
30647W        W34245   4.859   0.719  15.831  0.0844  0.1706  0.3819
30648W        W34246   8.280   4.348   5.162 -0.0796 -0.0903 -0.2457
30649W        W34247   4.591  11.394   7.246  0.2288 -0.2183  0.1862
30650W        W34248   2.647   0.405   0.486 -0.3410  0.0018 -0.0948
30651W        W34249  10.599   9.293  10.818  0.0016  0.0609  0.2376
30652W        W34250   7.061  14.744  13.984 -0.0350 -0.1820 -0.1062
30653W        W34251   1.244  14.895   9.330  0.0992 -0.1746 -0.0789
30654W        W34252   9.470   1.251  13.986 -0.0162  0.0710  0.1622
30655W        W34253  13.264   4.139   0.731 -0.1672 -0.1838  0.3071
30656W        W34254  12.714  10.517  12.888  0.0248  0.2129 -0.1550
30657W        W34255   3.643  13.513  11.207 -0.1413  0.1044  0.0808
30658W        W34256   0.490   3.205  10.902 -0.2145 -0.0798 -0.2275
30659W        W34257  12.171  10.152   2.238  0.1070  0.0572 -0.0796
30660W        W34258  13.241   5.543  14.292 -0.2539 -0.1170  0.1489
30661W        W34259   3.770   5.276  11.035  0.0848 -0.0255 -0.0201
30662W        W34260   7.303  11.818  11.531  0.1091 -0.2179 -0.0158
30663W        W34261  12.908   9.464  11.141  0.1575 -0.1059  0.1353
30664W        W34262  12.857  12.767   9.416  0.1633 -0.0499  0.2440
30665W        W34263  14.385   6.478   0.349  0.0080  0.1141 -0.1072
30666W        W34264   1.134   0.232   0.699  0.0476 -0.1695  0.1929
30667W        W34265   4.330  13.993  10.731  0.1951  0.1822 -0.1076
30668W        W34266   5.584   2.825   3.400  0.1974  0.0715  0.0734
30669W        W34267   4.211   1.678   5.337 -0.1039 -0.0583  0.1334
30670W        W34268   6.099   5.293  13.413 -0.4618  0.0659  0.1786
30671W        W34269  12.085  10.838   2.146  0.1071  0.0092 -0.0134
30672W        W34270  13.703   6.160  14.224 -0.2042  0.2565  0.1726
30673W        W34271   2.138   7.441  10.584  0.1835 -0.1711 -0.1652
30674W        W34272  14.170  13.391   7.291 -0.1416  0.1244 -0.0401
30675W        W34273  12.186   1.235   6.539  0.3816 -0.0852  0.1561
30676W        W34274   2.123   1.241  14.176  0.1031  0.0796 -0.0191
30677W        W34275   6.446   0.075   4.626  0.0253  0.2904  0.0411
30678W        W34276   2.359   3.042   8.704  0.2112  0.1980 -0.0561
30679W        W34277  13.568   4.605   5.851  0.1245  0.0633 -0.0460
30680W        W34278   3.986   1.436   6.557  0.2350 -0.1003 -0.2327
30681W        W34279   2.681  14.046  15.691 -0.0099 -0.0139 -0.3208
30682W        W34280   9.707  15.228   2.459  0.0397 -0.3511  0.2922
30683W        W34281  10.858  13.468  16.220 -0.4264  0.1792 -0.1094
30684W        W34282   1.084   9.807   7.950  0.0145  0.0464  0.2180
30685W        W34283   5.755  16.064   1.339  0.0272  0.1947  0.0475
30686W        W34284   4.514   1.593   2.379 -0.1519  0.0124 -0.0056
30687W        W34285  12.868   4.173   1.349 -0.1605  0.4231  0.0704
30688W        W34286  11.250   8.085  16.255  0.1200  0.0273 -0.1287
30689W        W34287   4.085   6.863   5.573  0.1036  0.0900 -0.0970
30690W        W34288   7.575   6.908   3.089 -0.3403  0.2310  0.3259
30691W        W34289  10.768   8.578  11.927  0.0254  0.0052 -0.1636
30692W        W34290  15.464  13.599  11.738  0.1032  0.3142 -0.0398
30693W        W34291   6.332   8.347  15.049  0.1040  0.0660 -0.3480
30694W        W34292  11.062   9.030   1.160 -0.0218  0.1165  0.2096
30695W        W34293  10.226  12.849  15.927  0.1784 -0.0718 -0.1151
30696W        W34294   5.925   0.965  13.653 -0.0369 -0.1091 -0.1707
30697W        W34295   8.158  10.874   4.447 -0.1617 -0.1621 -0.3979
30698W        W34296   4.312   5.618   8.070  0.3860 -0.1723  0.1756
30699W        W34297   8.726  14.775  12.473  0.1643  0.2364 -0.2387
30700W        W34298   6.117   0.719   3.982  0.0037 -0.2872 -0.0852
30701W        W34299   0.302  13.538  12.842  0.1142  0.0559  0.0521
30702W        W34300   0.435   1.446   4.159 -0.2099  0.1338  0.0276
30703W        W34301  11.781   6.014   2.825 -0.0005 -0.0834  0.1197
30704W        W34302   8.578   5.523   6.279 -0.1013 -0.1697 -0.0795
30705W        W34303   7.990   1.138  12.056  0.0665 -0.0011 -0.0455
30706W        W34304   5.100  10.250  14.946 -0.1018 -0.2220 -0.0278
30707W        W34305   3.959  12.050  11.403  0.0756 -0.0200  0.1767
30708W        W34306   8.764   6.364   6.222 -0.2202 -0.0035  0.2676
30709W        W34307  12.592  10.889  10.368 -0.0206 -0.2688 -0.0492
30710W        W34308   2.275  11.366  12.085 -0.1916 -0.1510 -0.2322
30711W        W34309   2.884  12.459   1.832 -0.0404  0.2884 -0.1853
30712W        W34310   3.044   1.484   5.573 -0.0501  0.0219 -0.0012
30713W        W34311  16.152   3.127   4.875  0.0952  0.0904 -0.3226
30714W        W34312   1.743   0.047   4.429  0.0179 -0.1871 -0.1724
30715W        W34313   1.994   7.426   8.355 -0.0005  0.4124  0.0357
30716W        W34314  15.859  14.263   2.929 -0.3512 -0.1806 -0.0300
30717W        W34315  13.672  13.777   3.186 -0.1303 -0.3119 -0.0402
30718W        W34316   0.997   1.197   5.663  0.2738  0.0727 -0.3388
30719W        W34317   7.858  12.850   5.811  0.0108 -0.3423  0.3280
30720W        W34318   5.798  13.560   1.265 -0.2806  0.1657  0.0050
30721W        W34319  16.366   5.540   4.702  0.1477  0.1026 -0.0836
30722W        W34320  11.855  15.951  15.481  0.0049  0.1775  0.0894
30723W        W34321   5.247  12.937   0.025  0.0723 -0.2794 -0.1853
30724W        W34322  13.047   7.242   0.411 -0.0599 -0.0626  0.0013
30725W        W34323  13.791   2.110   7.923  0.0471  0.0298  0.0873
30726W        W34324  15.370  13.492  15.380 -0.0460  0.1139  0.1337
30727W        W34325  10.697   5.743  13.715  0.2223 -0.1153 -0.0969
30728W        W34326   2.193   0.035  10.245 -0.1524 -0.3264 -0.2602
30729W        W34327   5.432   0.591   5.290 -0.0905 -0.2168 -0.2265
30730W        W34328   3.152  15.530  13.995  0.1130 -0.2467 -0.0749
30731W        W34329   6.720  11.530   0.151  0.3035 -0.2012  0.2445
30732W        W34330   0.963  15.123   0.597 -0.0477  0.0379 -0.1463
30733W        W34331  13.280  12.789  14.232 -0.2810 -0.3141  0.1792
30734W        W34332   6.740  11.306   7.530 -0.3010 -0.3129 -0.0526
30735W        W34333  12.590  12.661  15.023  0.1315 -0.1381 -0.1454
30736W        W34334   9.221  15.402  12.636  0.4131 -0.0858  0.0690
30737W        W34335  16.262   8.244   3.841  0.2077  0.2007 -0.0157
30738W        W34336   1.136  13.480  15.435  0.2956  0.1573 -0.0262
30739W        W34337  12.275  10.425  13.526  0.1225 -0.2253 -0.1776
30740W        W34338   0.042  16.016  11.770 -0.3157  0.1330  0.0568
30741W        W34339   3.221  13.700  11.086  0.0661  0.1908 -0.0802
30742W        W34340   1.714  13.939   0.816 -0.0590 -0.0115 -0.1293
30743W        W34341   3.011   5.666  12.215  0.1371  0.0772 -0.2102
30744W        W34342  15.756   9.077  15.746 -0.0932 -0.0973  0.0723
30745W        W34343   5.402   3.935   2.739 -0.2411  0.0218 -0.0217
30746W        W34344   2.398   8.674  11.365 -0.1498 -0.4292 -0.0199
30747W        W34345  15.463  13.300  12.143 -0.1443  0.0563  0.3824
30748W        W34346  14.459   3.398  14.517  0.3370 -0.0240 -0.1751
30749W        W34347   5.649  15.136  16.336  0.3178  0.0118 -0.4151
30750W        W34348   5.987   4.000   8.910 -0.0286 -0.0228  0.1577
30751W        W34349  12.566   6.834   5.007 -0.2942  0.0975 -0.3917
30752W        W34350   6.033  11.549   8.385  0.0912  0.0071  0.0344
30753W        W34351   8.112  12.770   8.429  0.0264 -0.5080  0.0029
30754W        W34352   4.116  11.065  15.329  0.2654 -0.3862  0.0860
30755W        W34353  15.575  11.424  13.770  0.1077 -0.0412 -0.0154
30756W        W34354   2.790  12.658  12.059  0.3648  0.2350  0.1916
30757W        W34355   7.103   7.282   8.748 -0.0561 -0.0195  0.1250
30758W        W34356  12.193  12.148   0.189 -0.2656  0.2304  0.2462
30759W        W34357   4.476  12.733   9.179  0.1033  0.0239 -0.2685
30760W        W34358   8.311   0.967   7.870  0.0237 -0.1456  0.0752
30761W        W34359   9.165   1.854   9.058  0.0363  0.0286 -0.1963
30762W        W34360  13.685   4.229  13.636  0.2491  0.1545  0.0083
30763W        W34361   0.991  11.011   6.601  0.1957 -0.4610 -0.1240
30764W        W34362   4.966   4.578   5.168  0.0982  0.3379  0.1925
30765W        W34363   0.334   6.457  13.916 -0.1233 -0.0038 -0.3729
30766W        W34364  13.869   1.554   4.653 -0.2879 -0.0470  0.0468
30767W        W34365  11.616   3.551  10.219  0.1265 -0.0854  0.0335
30768W        W34366   4.860  10.023   4.977  0.1428  0.3956  0.2203
30769W        W34367  10.570   7.546  12.582  0.3417 -0.0503  0.0359
30770W        W34368   7.670   1.672  14.391  0.0085 -0.0326  0.1676
30771W        W34369   5.608   3.412  10.831  0.0102  0.1967  0.0500
30772W        W34370  15.557   0.059  11.688 -0.0403  0.0151 -0.0442
30773W        W34371   1.037  11.320  13.967  0.0245 -0.0533  0.1034
30774W        W34372   2.143   7.608   0.056 -0.0236 -0.2064  0.1263
30775W        W34373   3.570  13.796  10.297 -0.1108  0.2707  0.0491
30776W        W34374   3.783  11.388  12.842  0.0145  0.1689  0.0903
30777W        W34375  15.442  11.925   1.357 -0.0644  0.3452  0.2244
30778W        W34376   4.618   0.335  12.471  0.0636  0.0537  0.0695
30779W        W34377  13.029   2.157   1.166  0.2014  0.0171 -0.0779
30780W        W34378   0.114   1.415   6.701 -0.1472  0.0398  0.1425
30781W        W34379   4.647   5.033   4.014 -0.0646  0.2019 -0.1026
30782W        W34380  12.019  14.896  13.769 -0.2678 -0.2242  0.0707
30783W        W34381  10.380   3.079   9.674 -0.1964 -0.2050  0.1774
30784W        W34382   5.698   3.228  15.592 -0.2375  0.1308  0.0089
30785W        W34383  14.791  10.578   0.500  0.0438 -0.1245  0.0739
30786W        W34384  15.404  11.565  13.301 -0.0739  0.0914  0.3437
30787W        W34385  10.087   5.106  13.565  0.0755  0.2349  0.2633
30788W        W34386  11.500   4.226  13.661  0.0644  0.2423 -0.1971
30789W        W34387  14.216   9.580   9.268 -0.3188 -0.1198 -0.2372
30790W        W34388  12.799   1.725  15.967  0.4233 -0.0511  0.2239
30791W        W34389  12.357   2.054  14.657 -0.1558 -0.2328  0.3345
30792W        W34390  16.239  10.966   0.552 -0.2236  0.2712 -0.1262
30793W        W34391   0.856   8.662   0.584 -0.1646 -0.1985 -0.1554
30794W        W34392   8.536  13.943   4.616 -0.0164  0.2514  0.2311
30795W        W34393  13.431   1.695  13.512  0.0367  0.0455  0.0675
30796W        W34394   1.659  10.411   8.302  0.0636  0.1165  0.1233
30797W        W34395  13.790   4.973   7.394 -0.0003 -0.0973 -0.2332
30798W        W34396   3.309   8.019   9.349  0.1832 -0.1252  0.0726
30799W        W34397   0.188  16.018   0.426  0.0365  0.1342  0.0951
30800W        W34398   0.367  16.125   1.662  0.1842  0.2019  0.0596
30801W        W34399  13.776   1.642   0.531 -0.0057 -0.0142  0.0094
30802W        W34400   1.454  12.728  14.065  0.1599 -0.1523  0.2237
30803W        W34401   0.869  14.952  11.463 -0.3871 -0.0897  0.1452
30804W        W34402   6.640  14.322  13.786 -0.2449  0.1898 -0.3500
30805W        W34403   1.206  14.048   7.714  0.0346 -0.1090 -0.2376
30806W        W34404  10.699   6.642  13.837 -0.1490  0.0718 -0.0332
30807W        W34405   3.497   2.417   3.816 -0.1255  0.0329 -0.2000
30808W        W34406   0.784  10.440  15.021 -0.1359 -0.0106 -0.1973
30809W        W34407   5.812   0.771   5.601  0.2490 -0.1520  0.0816
30810W        W34408  14.977   1.293   2.217 -0.0968  0.0209  0.3155
30811W        W34409   9.494  14.457  13.758 -0.0366 -0.1475  0.0671
30812W        W34410  15.634   6.315  12.124 -0.1130  0.1033  0.1278
30813W        W34411   7.058   0.902  12.972  0.0386  0.1053 -0.1269
30814W        W34412   7.388   4.543  12.344 -0.0882  0.0419 -0.1565
30815W        W34413   3.149  11.567   1.505  0.0651 -0.0400 -0.0228
30816W        W34414   4.562  14.061  12.890  0.1302  0.1333 -0.0208
30817W        W34415   3.456   2.661  14.668  0.2762  0.3026  0.0221
30818W        W34416   8.496   6.803   1.027 -0.1570  0.0426 -0.1996
30819W        W34417   7.309   3.744  11.487  0.2646  0.0982 -0.3112
30820W        W34418   2.648  15.342   7.600 -0.1446 -0.4220  0.2599
30821W        W34419  13.111   9.602  12.030 -0.1934  0.0869  0.0456
30822W        W34420  11.640  10.030   7.985  0.1131 -0.1229 -0.3501
30823W        W34421  13.635   7.925   0.834 -0.0230 -0.0847 -0.2250
30824W        W34422   7.164  11.441  14.758 -0.2272  0.2292 -0.0002
30825W        W34423   5.552   6.271  11.137  0.1568  0.3037 -0.2179
30826W        W34424   5.485   4.487   3.877  0.2753  0.0877  0.1905
30827W        W34425   8.847   5.082  13.334  0.0571 -0.2252  0.1113
30828W        W34426  15.197   8.233  14.165  0.0746  0.0023  0.1897
30829W        W34427  12.701   2.515   0.488  0.0513 -0.0540 -0.1457
30830W        W34428   1.918   9.567   5.317 -0.4288  0.1193 -0.1236
30831W        W34429   6.478   8.590   5.060  0.2552  0.0994  0.0384
30832W        W34430  16.141  13.521  14.124 -0.0990 -0.1054  0.2912
30833W        W34431   1.352  10.852   0.988 -0.3280  0.0619  0.0937
30834W        W34432  13.214  10.902  14.043 -0.0890 -0.0918 -0.0875
30835W        W34433  15.182  14.840   2.677  0.0191 -0.0795 -0.2667
30836W        W34434  13.885   7.684   2.162  0.0291 -0.1555  0.1127
30837W        W34435  10.488   8.736   1.893  0.0438  0.0239 -0.1886
30838W        W34436   2.147  15.702  14.307  0.0779 -0.1940 -0.2717
30839W        W34437   1.332  12.297   6.427  0.0133  0.0039  0.0600
30840W        W34438   6.408   7.758   8.263  0.0940 -0.1417 -0.0901
30841W        W34439  12.671  11.241   5.979 -0.1014  0.0881  0.1805
30842W        W34440   4.200  12.430  15.755 -0.4978 -0.0449 -0.3502
30843W        W34441   0.175  12.318   1.025 -0.1991 -0.1754 -0.1747
30844W        W34442   0.240  13.439   2.007  0.2687 -0.2763 -0.1659
30845W        W34443   7.723   9.433   7.851  0.3681 -0.0002 -0.0028
30846W        W34444  10.962   1.213   8.722  0.0824 -0.2109  0.0473
30847W        W34445  11.269   3.274   5.071 -0.1037  0.0108 -0.3924
30848W        W34446   5.163  14.982   6.565  0.3067  0.1903  0.1685
30849W        W34447  14.200   5.774   9.803  0.1680 -0.1304  0.2600
30850W        W34448  12.102   6.391   4.928 -0.0706  0.0491  0.1973
30851W        W34449  15.640  13.986  15.357 -0.1231 -0.1100  0.3292
30852W        W34450   9.585  13.976   8.037 -0.1125  0.0026 -0.1656
30853W        W34451   6.604   0.648  15.964  0.1502  0.0110  0.0099
30854W        W34452  13.253   5.807  12.979 -0.0384 -0.3235 -0.0626
30855W        W34453  10.518  15.896   7.458  0.1789 -0.0192 -0.0186
30856W        W34454   0.937  10.996   2.510 -0.1650 -0.1712 -0.0510
30857W        W34455   6.467  10.183  12.613  0.1686  0.0818 -0.1328
30858W        W34456  13.885   9.557  12.929 -0.0288 -0.0652  0.1945
30859W        W34457  16.057  13.666  11.622  0.0796 -0.1632  0.1929
30860W        W34458   4.581   3.852   8.345 -0.1359 -0.0323  0.0521
30861W        W34459   6.385  14.522   8.783 -0.1285  0.0207 -0.0975
30862W        W34460   2.245   8.438  14.448  0.1273  0.2002  0.0264
30863W        W34461   1.079  12.275   8.284  0.1029 -0.1905 -0.3611
30864W        W34462  12.724   7.608   5.756  0.0413 -0.0660 -0.4553
30865W        W34463  12.696   1.500  12.740  0.1224 -0.0053 -0.2190
30866W        W34464   4.695   5.643  14.275 -0.1410  0.0397  0.1584
30867W        W34465   7.369  11.301   9.072 -0.0288 -0.0369 -0.1168
30868W        W34466  12.995  10.091  14.203  0.1764  0.1357  0.2078
30869W        W34467  14.358   9.485  12.329  0.0916  0.2811  0.3033
30870W        W34468   3.177  10.667   2.303 -0.4022  0.0209  0.4975
30871W        W34469   5.281   7.161   8.880 -0.0812 -0.0508  0.2020
30872W        W34470   0.215  15.708  12.120  0.1625  0.1312 -0.0172
30873W        W34471  11.237   3.663  15.051 -0.0860 -0.0621 -0.0184
30874W        W34472   1.242   0.788   4.934 -0.1667 -0.1472  0.1898
30875W        W34473  10.295   5.121  12.486  0.1438 -0.0925 -0.2345
30876W        W34474   9.839  15.642  11.259  0.0809 -0.1376  0.1673
30877W        W34475   7.000  10.312  13.936  0.0431 -0.2464  0.0407
30878W        W34476  16.061   2.199   2.376  0.1846 -0.0726  0.1928
30879W        W34477  12.763   7.247   4.851 -0.0930  0.2878  0.0443
30880W        W34478  13.547   4.873  11.285  0.3542 -0.0305 -0.2897
30881W        W34479   5.962   1.489   3.867 -0.0503 -0.2234 -0.0546
30882W        W34480   8.899   0.669   7.930 -0.2797 -0.0469  0.4449
30883W        W34481  10.140   5.824  12.348 -0.0374  0.0837 -0.3241
30884W        W34482   1.766   6.370  11.321 -0.1796 -0.0614  0.1413
30885W        W34483  12.564  14.844   4.614  0.3208 -0.0179  0.0671
30886W        W34484  15.865  10.089   5.118  0.1142  0.0671 -0.1897
30887W        W34485   9.269  13.930  11.813  0.1269  0.1491 -0.0807
30888W        W34486  10.081  11.896  11.880  0.0233 -0.0990  0.2656
30889W        W34487   6.234  15.884  10.519 -0.2277 -0.0761 -0.2976
30890W        W34488   5.647  12.667   6.559  0.0730 -0.1296  0.1854
30891W        W34489   4.968   5.789  10.732  0.1718  0.1551  0.0163
30892W        W34490  14.755   8.459   4.154 -0.1119 -0.0554 -0.4093
30893W        W34491   0.071   1.713   0.263  0.0295 -0.0451 -0.0915
30894W        W34492   9.989   2.123   4.961  0.1520  0.0150  0.0016
30895W        W34493  15.458   7.433   5.679  0.0090 -0.0431  0.1231
30896W        W34494  11.186   7.965  10.319  0.1434  0.3601 -0.1934
30897W        W34495  14.865  11.564   8.005  0.1437  0.1343  0.1253
30898W        W34496   0.488  15.291  10.217 -0.2836 -0.0265 -0.0379
30899W        W34497   7.462   2.262   6.799  0.0168  0.0030 -0.0255
30900W        W34498   2.160   7.478   0.595  0.1406  0.0669  0.2588
30901W        W34499   8.802  10.206   8.310 -0.2315 -0.1925 -0.1562
30902W        W34500   0.169  15.315  10.597  0.0301 -0.0304 -0.0609
30903W        W34501  15.509  12.703  11.502  0.2653  0.0105 -0.1250
30904W        W34502   8.472  12.485  13.018  0.1117  0.0416  0.1042
30905W        W34503   6.004  13.176   5.866  0.1000  0.3542 -0.0220
30906W        W34504   9.875   6.435  12.811  0.0487 -0.0900 -0.1376
30907W        W34505   3.783   7.325  10.231 -0.0764  0.1781  0.0747
30908W        W34506   7.089   1.292   5.285  0.3815  0.2551  0.0163
30909W        W34507  13.561  11.676  15.680 -0.0740  0.0019 -0.2090
30910W        W34508  11.583   8.663   5.277 -0.2591  0.0232 -0.1788
30911W        W34509   2.096   3.935   3.642  0.3712 -0.0739  0.2427
30912W        W34510   5.957   9.345  10.451 -0.1286  0.1583  0.1858
30913W        W34511   6.760   4.269   8.436  0.2193 -0.0603  0.0417
30914W        W34512   2.468   8.023   4.172 -0.0431  0.2615 -0.0889
30915W        W34513   5.849  14.831   7.888  0.0622 -0.2013 -0.0086
30916W        W34514   2.070   9.892   6.915 -0.1281 -0.2626 -0.2027
30917W        W34515  11.962  13.539   8.811  0.2255  0.1421  0.1130
30918W        W34516   8.967   9.555   7.239 -0.0332  0.1266 -0.1077
30919W        W34517   0.196   8.547  12.805  0.0104  0.3315  0.1628
30920W        W34518   8.408   5.049  13.570 -0.0910  0.0294  0.0096
30921W        W34519  13.228   5.546  12.402  0.1672 -0.1528 -0.3234
30922W        W34520   9.406  13.535  12.637 -0.1016 -0.1993 -0.0624
30923W        W34521  11.484  16.359  14.559 -0.3363 -0.0021 -0.3819
30924W        W34522   7.149   7.222   2.913 -0.0253  0.1227 -0.0723
30925W        W34523  13.898   4.596   2.918 -0.0629 -0.4721 -0.0904
30926W        W34524   3.472  12.520   8.033 -0.0968 -0.0208 -0.1999
30927W        W34525   5.327  10.552   2.555 -0.5125  0.1750  0.0633
30928W        W34526   9.037  10.095   2.730  0.0506 -0.3290  0.1326
30929W        W34527   6.616  15.436   3.714  0.3415 -0.1952  0.0695
30930W        W34528   2.361   9.895  13.908 -0.0007  0.2055 -0.1793
30931W        W34529   9.475   6.328  10.296  0.0897  0.1459  0.3248
30932W        W34530   8.750   5.077   5.405  0.0362 -0.1645  0.1740
30933W        W34531   1.911   6.656   9.999  0.0574 -0.1855  0.2504
30934W        W34532  14.916  11.343  10.583 -0.0595  0.0469  0.1954
30935W        W34533   6.657   4.600   8.746  0.0383  0.2744 -0.1919
30936W        W34534   2.422   7.273   9.627 -0.0161  0.1230  0.0005
30937W        W34535   6.590   5.954  11.177 -0.5698 -0.0352 -0.0504
30938W        W34536   3.811  12.008  10.501 -0.0457  0.1653  0.0492
30939W        W34537  12.884   4.698  14.027  0.1530  0.0414  0.2797
30940W        W34538  13.478  14.385   7.993 -0.0843  0.0268 -0.1498
30941W        W34539  11.973   0.399  15.200  0.2809 -0.0028  0.1437
30942W        W34540   5.722   7.652   0.500  0.1807 -0.0677 -0.2397
30943W        W34541  12.310   7.285   6.510  0.2612  0.0935 -0.0804
30944W        W34542  15.181   7.518  13.991 -0.0716  0.2743  0.0128
30945W        W34543   5.449   1.971   2.757 -0.0518 -0.1882  0.2931
30946W        W34544   9.110  14.400  14.229  0.3826 -0.1591  0.2183
30947W        W34545   0.679  13.559   0.765  0.2933  0.0354  0.0285
30948W        W34546   2.483  11.685   2.086  0.0260  0.1288  0.0900
30949W        W34547   1.671   4.874   8.868  0.0192  0.0562 -0.0205
30950W        W34548   4.652  10.837  11.039 -0.0354  0.2578  0.1369
30951W        W34549   7.657  15.289  14.857  0.1577  0.0942 -0.0553
30952W        W34550  14.757   8.634   4.659 -0.3979  0.4182  0.0854
30953W        W34551   6.023   3.712   1.877  0.1148  0.0818 -0.0598
30954W        W34552   9.044   7.577  13.489  0.1402  0.2903 -0.0538
30955W        W34553  15.339   4.908  12.177  0.0028  0.1830  0.0937
30956W        W34554   0.838   7.384   4.654 -0.2431  0.1719 -0.0815
30957W        W34555  16.132   1.130   0.617  0.0883 -0.0609  0.0142
30958W        W34556   4.513   9.802   0.303 -0.0450 -0.0757  0.0373
30959W        W34557  15.852  13.579  10.374  0.1643 -0.1828  0.0825
30960W        W34558  11.227  10.474   5.044 -0.1860  0.0304  0.1394
30961W        W34559  12.603  12.065   5.871  0.0704 -0.3337  0.0603
30962W        W34560  12.025   4.236   4.811 -0.3766 -0.0778 -0.0243
30963W        W34561  13.127   5.100  12.249  0.0438  0.0535  0.1402
30964W        W34562   5.117   6.588   8.667  0.2290 -0.2411  0.3577
30965W        W34563  12.751   5.301  13.129  0.3296 -0.0350  0.3262
30966W        W34564   7.080   0.591  15.782  0.3707 -0.0266 -0.0987
30967W        W34565   2.368  13.395   6.329 -0.0186  0.1735 -0.1501
30968W        W34566   7.954   7.834   6.437  0.5649 -0.3180  0.0083
30969W        W34567   3.067   0.752   3.730 -0.0580 -0.0390  0.1673
30970W        W34568  13.300   6.830   6.261  0.1607  0.2127 -0.2435
30971W        W34569   3.381   9.358  12.001 -0.1596  0.1310 -0.1703
30972W        W34570   6.863  14.149   0.502  0.2306 -0.3035  0.1508
30973W        W34571   3.122   3.726   3.034  0.1053  0.2354 -0.0072
30974W        W34572  14.926  12.092   6.304  0.1071 -0.1007  0.1199
30975W        W34573  11.480  14.767   3.640 -0.3657  0.3082  0.2606
30976W        W34574   7.879   8.073  15.981  0.0786 -0.2952 -0.2280
30977W        W34575   5.471  14.403   8.906  0.4208  0.1806 -0.1220
30978W        W34576   6.966  15.345   2.865 -0.2330  0.1540 -0.1048
30979W        W34577   8.297   3.438  11.968 -0.0866  0.0346 -0.1988
30980W        W34578   7.221   2.205  15.768  0.2111  0.1809  0.0364
30981W        W34579  10.703  16.339   9.778 -0.1155  0.3884 -0.1399
30982W        W34580  12.821   0.512   0.304 -0.0302 -0.2848 -0.1225
30983W        W34581   9.110  14.233  10.143 -0.0151 -0.1626  0.0090
30984W        W34582   9.433   6.381  11.132  0.0921  0.0792  0.0845
30985W        W34583  11.457   8.576  10.287  0.2414 -0.2486 -0.1690
30986W        W34584   0.173   4.705   1.271 -0.0735  0.1626 -0.1218
30987W        W34585   3.389  16.009   5.510  0.1100  0.1185 -0.2386
30988W        W34586  11.025   5.839  13.350 -0.2595  0.0184  0.2133
30989W        W34587   1.114   0.106  16.232 -0.1459  0.1668  0.1611
30990W        W34588  10.396   9.088   4.138 -0.2055  0.1985  0.0080
30991W        W34589  11.672   5.654  12.325  0.3514 -0.0412  0.2810
30992W        W34590  14.203   1.722   7.197 -0.0402  0.2733 -0.2389
30993W        W34591   3.413   3.050  13.815 -0.1398 -0.0537  0.2115
30994W        W34592  12.119  10.876   9.328  0.0515 -0.0132 -0.0225
30995W        W34593  12.785   0.818   5.101  0.0427 -0.0872 -0.0953
30996W        W34594  12.707  13.087  11.017 -0.1979 -0.1006 -0.1677
30997W        W34595   3.347   4.666   4.238  0.0540 -0.5052 -0.2381
30998W        W34596   0.286   6.019  11.144  0.0050 -0.0422  0.0137
30999W        W34597   1.391  12.155   3.158 -0.3333  0.1704 -0.0095
31000W        W34598   8.009   6.989   5.662  0.6213 -0.2761 -0.1209
31001W        W34599   1.644   8.330  11.915 -0.0804 -0.1181 -0.1144
31002W        W34600   8.910   5.469   0.834 -0.0071  0.0428 -0.1435
31003W        W34601   7.439  13.868  13.646 -0.0044  0.1800 -0.0159
31004W        W34602  12.076   0.202   5.022  0.0212  0.1932 -0.1472
31005W        W34603   0.765   3.767  13.252  0.4017 -0.2461  0.0209
31006W        W34604  11.227   4.221   6.333  0.2108 -0.1003 -0.0847
31007W        W34605   7.191   9.148   9.084  0.1044  0.1141 -0.3924
31008W        W34606  10.960   7.046  11.241 -0.0347  0.0005 -0.3610
31009W        W34607   8.089   3.470   5.601  0.0585  0.0252  0.1682
31010W        W34608  11.495   6.159  13.240  0.0865  0.0654  0.2203
31011W        W34609  12.333   3.250   3.264 -0.0443  0.1196 -0.1644
31012W        W34610  12.650  15.007   0.650 -0.1833  0.2078 -0.0095
31013W        W34611   3.492  11.459   1.859  0.0811 -0.2299  0.0110
31014W        W34612  14.083   7.311   8.111 -0.1774  0.1237 -0.0485
31015W        W34613   1.507   8.210   1.326  0.1698  0.1966  0.0657
31016W        W34614   8.708   9.942  15.763 -0.2312  0.0917  0.1150
31017W        W34615   9.811  13.523  10.882  0.4286 -0.3223 -0.0252
31018W        W34616   1.910   9.477  10.924  0.1878 -0.1550  0.0809
31019W        W34617   9.145   5.379  15.516  0.0495 -0.0340 -0.1922
31020W        W34618  15.761  12.114  14.828 -0.1531  0.1274  0.4544
31021W        W34619   3.655  14.928   6.361 -0.0816 -0.0959 -0.1064
31022W        W34620  12.197  15.674  12.647  0.2512 -0.3806  0.0990
31023W        W34621   9.242  14.288   3.625 -0.1960 -0.3404 -0.2093
31024W        W34622   2.041  11.548   2.993 -0.4421  0.0774 -0.1556
31025W        W34623   9.562  10.533   6.743 -0.0707  0.1140 -0.0332
31026W        W34624   9.237  15.832  12.921 -0.1061 -0.0137 -0.0044
31027W        W34625   1.409  12.660   3.632  0.0387 -0.1947 -0.1582
31028W        W34626   6.077  15.432  14.249  0.0464 -0.1493  0.0948
31029W        W34627  11.847  15.112   3.472  0.2135  0.2171 -0.4101
31030W        W34628   4.824  16.366  12.773 -0.0554  0.0044 -0.1842
31031W        W34629   9.022   0.668   1.076 -0.0382 -0.2460 -0.0822
31032W        W34630   0.251   1.212  14.078  0.1696  0.1904  0.0072
31033W        W34631  13.112  14.822  11.984  0.0371  0.2173  0.0084
31034W        W34632   4.312  11.750  12.436 -0.0045 -0.0109 -0.5117
31035W        W34633  12.597  13.199  12.300  0.0880  0.1120  0.0281
31036W        W34634   2.417   1.179   0.985 -0.0735  0.1072  0.1338
31037W        W34635   5.673   7.451   2.345  0.0578 -0.0241 -0.1001
31038W        W34636   4.010   8.165  14.114  0.2445 -0.0923  0.0505
31039W        W34637  11.880  12.928  12.959 -0.0902 -0.1626  0.0416
31040W        W34638  13.895   4.156   6.684  0.2518  0.5606 -0.0806
31041W        W34639  15.353  13.867   1.110 -0.0332 -0.0705  0.0721
31042W        W34640   3.259   5.139  11.397  0.1090  0.3212 -0.2167
31043W        W34641   0.699   1.809   0.778 -0.1018  0.1130 -0.1445
31044W        W34642  16.230  13.065   5.607 -0.1096  0.2193  0.2342
31045W        W34643  14.008   2.002   1.842  0.1922 -0.3267 -0.1841
31046W        W34644  11.309   8.110  15.181 -0.1610 -0.0123  0.0320
31047W        W34645   5.325   3.824   5.074 -0.3533 -0.2486 -0.0324
31048W        W34646  11.739   0.313  14.340 -0.0422  0.3898 -0.2187
31049W        W34647   2.075   6.818  11.408  0.2351  0.1378  0.1769
31050W        W34648   4.479  10.734  12.924  0.2949  0.0375  0.1267
31051W        W34649  13.334  14.733  14.626 -0.0484  0.2466 -0.5075
31052W        W34650   2.217   6.044   8.516 -0.0381 -0.3081 -0.0493
31053W        W34651   7.433  14.106   9.860 -0.1770 -0.0827 -0.0478
31054W        W34652   1.389  10.342   5.669  0.1265 -0.1560 -0.1854
31055W        W34653  13.529   9.348   1.014  0.2637 -0.2744  0.0196
31056W        W34654  13.931  13.941   8.887 -0.0932  0.0865  0.1274
31057W        W34655  10.869   4.455  13.375 -0.1668 -0.0072  0.2487
31058W        W34656  13.348  12.356  11.998 -0.2409  0.0289 -0.0236
31059W        W34657   6.848  15.027   3.463  0.2311 -0.2030  0.0406
31060W        W34658  15.067  15.974   6.924 -0.0568  0.0096 -0.1316
31061W        W34659  15.392  13.276  15.867  0.2852 -0.0080 -0.0249
31062W        W34660  12.838   8.423   5.888 -0.1417  0.1189 -0.0437
31063W        W34661   1.828   8.925  10.945 -0.2957  0.2412  0.0614
31064W        W34662   1.738  15.292   7.724  0.0587 -0.1487 -0.2495
31065W        W34663   9.461   2.014   7.569  0.0246 -0.0510 -0.4984
31066W        W34664   0.837   0.080   2.540 -0.0876 -0.1319  0.2448
31067W        W34665   8.189   4.911   2.850  0.1381 -0.0350 -0.0959
31068W        W34666  10.422  12.590  14.780  0.0663 -0.2320  0.2171
31069W        W34667   1.137   7.196  14.572  0.0706  0.0729  0.0299
31070W        W34668   5.716   0.043   7.506  0.0791  0.0336  0.3757
31071W        W34669   9.514   0.620   3.167  0.3514  0.1172  0.0758
31072W        W34670   9.936   4.822   1.832  0.0988  0.0872 -0.0529
31073W        W34671   2.443   9.644   6.126  0.1084 -0.1381 -0.1076
31074W        W34672   4.146  13.926  14.263  0.0995 -0.1935  0.0581
31075W        W34673   7.831   5.194  14.329  0.0090 -0.2500  0.2650
31076W        W34674   7.359  16.308   4.401  0.0476  0.0960  0.0948
31077W        W34675  15.378   0.243  13.610  0.1586 -0.1376 -0.1813
31078W        W34676   3.108   6.664  12.976 -0.1377 -0.1713 -0.2575
31079W        W34677   6.655   2.253   7.240  0.0968 -0.0043  0.0578
31080W        W34678   8.059   0.268   7.913  0.2017 -0.1003 -0.1453
31081W        W34679   9.309  10.429   9.756 -0.0446  0.1516  0.0722
31082W        W34680   3.522  10.871  13.919  0.0024 -0.1030  0.1698
31083W        W34681   1.127   0.745  11.253 -0.3629 -0.0545 -0.2599
31084W        W34682   7.759   0.946   3.613  0.0296 -0.3023  0.0917
31085W        W34683   4.991  16.051   8.155  0.0907  0.3925 -0.0305
31086W        W34684   0.500  14.239   4.995 -0.1388 -0.0693  0.0010
31087W        W34685  11.966  11.905   4.226  0.2026 -0.2692  0.0522
31088W        W34686  15.535  10.806   4.308  0.1353 -0.1617  0.1442
31089W        W34687   7.628   0.559   0.332  0.2229  0.0123  0.2475
31090W        W34688   4.106   7.306  16.062 -0.0853 -0.1293 -0.1841
31091W        W34689   3.166   1.050  10.551  0.2478 -0.0422  0.0733
31092W        W34690  12.302  11.144  12.432 -0.3976  0.0666 -0.1732
31093W        W34691   3.701  12.670  10.692 -0.2471 -0.1720  0.1038
31094W        W34692   9.413   5.146   3.165  0.0708 -0.1821  0.0403
31095W        W34693   1.778  12.834   7.175  0.0813 -0.0631  0.2158
31096W        W34694  14.175   6.188  11.411 -0.0020  0.1986  0.1102
31097W        W34695  15.679   7.895   5.482  0.0597  0.0993  0.4113
31098W        W34696   0.752   7.159   4.165  0.1711 -0.0195 -0.1579
31099W        W34697   7.241   9.242  13.863 -0.0111  0.0319  0.0007
31100W        W34698  12.919   2.452   2.389  0.3589 -0.1881  0.0385
31101W        W34699  15.838   3.365   4.204  0.1677 -0.1432  0.0257
31102W        W34700   3.215   9.714   2.104 -0.2996  0.1508 -0.1484
31103W        W34701  15.931  12.550  11.670 -0.2805  0.2539 -0.0489
31104W        W34702   2.412  14.074  11.247 -0.2288 -0.0480 -0.0181
31105W        W34703   7.223  16.173  16.129 -0.0578  0.0667 -0.0214
31106W        W34704  13.939   5.989   1.451  0.1151 -0.2577 -0.3113
31107W        W34705  11.151   7.419   0.949 -0.0054  0.2069  0.1237
31108W        W34706  10.451   1.808   9.380 -0.0052 -0.1912  0.0705
31109W        W34707  16.158   0.591  14.386 -0.0337 -0.0795  0.1122
31110W        W34708   0.172  13.561  11.672  0.3572 -0.0610 -0.3007
31111W        W34709   0.972   4.001  11.060 -0.1386 -0.1841  0.1803
31112W        W34710  13.725  16.180   9.233 -0.0012 -0.1281 -0.0824
31113W        W34711   9.847  11.044  10.149  0.0075 -0.2046 -0.1471
31114W        W34712  11.362   1.376   0.504  0.1541 -0.0026 -0.4267
31115W        W34713   8.387  10.653  12.801 -0.2047 -0.1882  0.1547
31116W        W34714   7.533  13.993  12.717 -0.0086 -0.1388 -0.0549
31117W        W34715   7.874  10.160  16.148  0.0480 -0.0552  0.1134
31118W        W34716   5.672   4.202  13.864  0.0044  0.2655  0.1042
31119W        W34717   7.288   0.336   0.676 -0.3276  0.2500 -0.2130
31120W        W34718  11.519   1.455  16.286 -0.0216 -0.2178 -0.0689
31121W        W34719   7.577   5.460   8.955 -0.2087  0.0283  0.2685
31122W        W34720   4.019   7.701  15.724  0.0384  0.2389 -0.3010
31123W        W34721  11.739   2.238   3.802 -0.0119 -0.1826 -0.0533
31124W        W34722  12.964  10.342   7.648  0.3315  0.0915 -0.0315
31125W        W34723  10.857  15.750  13.980 -0.2478  0.1828  0.2122
31126W        W34724   3.234   6.770   4.624 -0.0121  0.0870 -0.3239
31127W        W34725   2.521  12.632   7.893  0.2887 -0.0634 -0.0797
31128W        W34726   4.673  15.715  15.308  0.1162  0.0408 -0.1638
31129W        W34727   2.495   5.269   3.405 -0.2981 -0.2684  0.0156
31130W        W34728   2.633   7.237   2.871  0.2070  0.1114 -0.0284
31131W        W34729   0.574  14.111   1.502  0.0241  0.0532  0.2181
31132W        W34730  14.200   6.746   1.783  0.1169  0.1945  0.0127
31133W        W34731  13.068  14.756  12.560 -0.2421  0.2099  0.2027
31134W        W34732   9.551   3.473   3.797  0.0132 -0.0124 -0.0517
31135W        W34733   8.314   5.976   1.909  0.3858 -0.0366  0.2402
31136W        W34734   5.068   1.993   3.140  0.0536  0.0270  0.1722
31137W        W34735  16.290  10.941   2.999 -0.1095  0.2330 -0.0629
31138W        W34736  15.053  11.241  13.157  0.1060 -0.1168 -0.5962
31139W        W34737  14.480  13.188   6.807 -0.1184 -0.2305 -0.0553
31140W        W34738   3.169  13.384   3.566 -0.0040 -0.1350  0.0158
31141W        W34739  11.802   7.124   5.383 -0.2829 -0.0499 -0.2389
31142W        W34740   1.394  15.676   8.259  0.1967  0.0964 -0.0689
31143W        W34741   2.994  11.093  10.290 -0.2441  0.0049  0.2983
31144W        W34742  14.010   2.067   7.461  0.1104  0.0143  0.0611
31145W        W34743   4.045   6.713   1.777 -0.1107  0.3680 -0.1746
31146W        W34744  12.539   3.522   8.828  0.2332  0.0880  0.0215
31147W        W34745   7.061   1.755   6.711  0.1271 -0.0129 -0.1159
31148W        W34746   9.315   9.936   7.388  0.0839 -0.0889  0.2881
31149W        W34747  15.844  14.510  15.933 -0.1786 -0.0424 -0.1422
31150W        W34748   6.645   9.895   6.993 -0.0914  0.1436  0.0229
31151W        W34749   3.662  11.673   0.321 -0.0024 -0.2769  0.2762
31152W        W34750  14.431   4.677   3.150 -0.0306  0.2698 -0.1831
31153W        W34751   8.885  13.793   5.580  0.1836 -0.0119 -0.0915
31154W        W34752  11.032   9.303  11.876  0.4700  0.1733  0.0423
31155W        W34753   9.993  16.199   8.149 -0.0532  0.1477 -0.1361
31156W        W34754   1.698   1.329   8.803  0.0295 -0.1980  0.1177
31157W        W34755  15.574  15.831  14.365  0.1870  0.2219 -0.0950
31158W        W34756  15.953   9.284   8.145  0.0474 -0.0536  0.0127
31159W        W34757   1.044   8.815  12.743  0.1976 -0.1210 -0.0744
31160W        W34758   2.207  10.793  12.132  0.1738  0.0135 -0.0405
31161W        W34759   8.268   9.281   0.521  0.3129  0.2337  0.2736
31162W        W34760   5.292   7.815   3.254  0.0505 -0.1251 -0.0253
31163W        W34761  11.588   3.943   4.245 -0.0982  0.1804 -0.1160
31164W        W34762   5.676   3.169   4.914 -0.4007 -0.0505  0.0151
31165W        W34763   8.732  14.427  10.510  0.2089 -0.2437  0.1658
31166W        W34764   1.087   8.701  14.638  0.1944 -0.0646  0.2325
31167W        W34765  12.167   7.638   2.326 -0.2541 -0.0503  0.0456
31168W        W34766   3.751   0.971   2.393 -0.1246  0.0369  0.0273
31169W        W34767   2.946  14.301  10.687 -0.0502  0.0514 -0.0659
31170W        W34768  15.646   0.534   4.359 -0.0406 -0.0766 -0.2029
31171W        W34769  16.004   8.297  15.352  0.1649  0.3995 -0.0929
31172W        W34770  13.650   6.513   6.448  0.1865  0.0321 -0.0976
31173W        W34771  13.030  14.289  13.283  0.0336 -0.0497 -0.0049
31174W        W34772  11.753   4.162  11.984 -0.1456 -0.0169 -0.1359
31175W        W34773   8.802   0.977   3.058  0.3037  0.1339  0.0284
31176W        W34774   4.650  11.001  10.171 -0.0421 -0.2697  0.0608
31177W        W34775   8.586  13.984   0.383 -0.0810  0.0269  0.2071
31178W        W34776   0.555  13.013  13.560 -0.1394  0.0609  0.1602
31179W        W34777  15.054  14.200  15.344 -0.0407  0.0789  0.0342
31180W        W34778  15.833   7.211  14.560  0.0846  0.0046 -0.0301
31181W        W34779   6.627  14.125   8.722  0.1135 -0.0780  0.2593
31182W        W34780   8.251   3.101   1.411  0.0755 -0.2349 -0.0787
31183W        W34781   9.995  10.549  14.582 -0.1002  0.2695  0.2798
31184W        W34782   1.069   3.264   8.541 -0.1752 -0.2567  0.2540
31185W        W34783   1.370   0.417   5.733 -0.1877 -0.0398  0.0015
31186W        W34784  14.505  16.200  10.833 -0.1611 -0.0213 -0.2593
31187W        W34785   0.063   6.073   4.616 -0.0824  0.1620 -0.0010
31188W        W34786  11.177   3.146  10.331 -0.0710 -0.5486  0.2320
31189W        W34787   2.240   0.265  14.301 -0.0908  0.0184  0.0266
31190W        W34788   7.372   4.056   9.763  0.1550  0.1431  0.1226
31191W        W34789  12.031   9.923   3.983  0.0916  0.0914 -0.1067
31192W        W34790   4.558   5.542   4.003  0.3151  0.1532  0.0058
31193W        W34791   3.949   0.958   8.556  0.0681  0.0282 -0.4929
31194W        W34792   1.337   6.740  10.680 -0.1586  0.1115  0.0102
31195W        W34793   8.135   3.430  14.324 -0.1815  0.2382 -0.1501
31196W        W34794  11.103   3.018   0.689 -0.0456  0.1212  0.4130
31197W        W34795   9.743  15.531   6.880  0.0205  0.3424 -0.0530
31198W        W34796   8.118   3.916  15.289  0.3002 -0.1948  0.1841
31199W        W34797  14.160  11.077  14.071 -0.0401 -0.2494 -0.1703
31200W        W34798  12.711  10.461   8.883  0.0825 -0.1846  0.0440
31201W        W34799  11.930   8.651   1.496 -0.0189  0.2152 -0.1861
31202W        W34800   9.480   9.300   7.999 -0.2109  0.0046 -0.2730
31203W        W34801  12.985  12.278   8.048 -0.1734 -0.2515 -0.0388
31204W        W34802  13.967   2.229  12.528 -0.1978  0.0967 -0.0397
31205W        W34803  12.354   7.929  12.919 -0.1383  0.4695 -0.0784
31206W        W34804   7.705   0.661   6.249  0.1120  0.0950  0.0806
31207W        W34805   7.908   9.425   8.735  0.2127  0.4255 -0.0468
31208W        W34806   8.180   3.903   4.387  0.2278  0.1926 -0.0689
31209W        W34807  10.568   0.244  13.828 -0.0869 -0.0497 -0.0453
31210W        W34808  13.910   3.269   6.423  0.2508  0.1825  0.1437
31211W        W34809  13.916   2.959   1.912  0.2672  0.0448 -0.0003
31212W        W34810  10.927   9.854  13.784  0.1269  0.0168 -0.0674
31213W        W34811   7.037   6.445   5.863 -0.1664 -0.1860 -0.1301
31214W        W34812  13.239  14.983   7.930 -0.0389  0.1227  0.0707
31215W        W34813   5.508   3.751   3.254 -0.1639 -0.2086 -0.2675
31216W        W34814   3.891   5.129  12.200 -0.2476  0.3016  0.1793
31217W        W34815   0.743   9.028  10.119 -0.0389 -0.0109 -0.3982
31218W        W34816   4.474  14.467   7.803 -0.0233 -0.0796 -0.3625
31219W        W34817  13.232   7.534  10.337  0.2233 -0.1849 -0.1328
31220W        W34818   4.117   3.032   5.681 -0.1513 -0.0692  0.2617
31221W        W34819   9.663  14.867   8.331  0.4057 -0.1790  0.1771
31222W        W34820   3.032   8.751   8.944 -0.0773 -0.1551 -0.0001
31223W        W34821  14.926   9.603   3.140  0.1790  0.0734 -0.0520
31224W        W34822   4.041  10.713   7.278 -0.3326  0.1734  0.0806
31225W        W34823   3.475  15.937  14.806 -0.1102 -0.1797 -0.0766
31226W        W34824   6.264  14.685  11.743  0.0530  0.0035 -0.1419
31227W        W34825  10.378   8.136  15.800  0.2577  0.1045 -0.0722
31228W        W34826   7.016   0.424  13.053 -0.0872  0.1074  0.0289
31229W        W34827   7.155  12.732   4.853  0.1808 -0.1361  0.0337
31230W        W34828   1.557   4.079  14.493  0.2442 -0.1176 -0.0092
31231W        W34829   1.377   4.360   9.028  0.1332 -0.2246  0.2505
31232W        W34830   7.071   5.328  13.012 -0.0773 -0.1427 -0.0392
31233W        W34831   9.865   7.097   8.981 -0.1747 -0.1923 -0.0560
31234W        W34832   9.686   7.667  11.929 -0.4958  0.0467  0.2137
31235W        W34833  15.413  12.016   0.024  0.1588  0.1871  0.0190
31236W        W34834   0.428   0.969   3.834 -0.0806  0.2460 -0.1667
31237W        W34835   5.374   2.240   8.213 -0.3360  0.1557  0.1963
31238W        W34836   9.792   9.078   9.792  0.2330  0.0056 -0.1351
31239W        W34837   8.284   8.414   1.282 -0.3049  0.2324 -0.0505
31240W        W34838  10.889   8.170   7.153 -0.0212 -0.0296 -0.4062
31241W        W34839   8.528   6.180   9.886  0.1150 -0.2479 -0.1358
31242W        W34840   4.588  10.010   5.504  0.0087  0.2992 -0.1411
31243W        W34841   7.131  13.198  11.754 -0.2659 -0.0242  0.2754
31244W        W34842   1.514  13.099   3.359 -0.1912  0.0772  0.3342
31245W        W34843  15.005  10.510   1.839  0.3407 -0.0084  0.0825
31246W        W34844  14.013  15.481   7.548 -0.0710 -0.0130  0.0672
31247W        W34845   9.870   6.576   0.099  0.2020  0.3185  0.2170
31248W        W34846   4.332   8.101   7.984 -0.2380 -0.3341 -0.0244
31249W        W34847  14.524   9.926   7.091 -0.0753  0.1920 -0.1389
31250W        W34848  11.832   9.745   4.755 -0.1279  0.2901 -0.1546
31251W        W34849  14.339  13.887  13.853 -0.1153 -0.1498  0.0218
31252W        W34850   6.276   0.829   9.792  0.0649 -0.2640 -0.1620
31253W        W34851   2.692   3.460   8.674 -0.0620 -0.2171  0.1350
31254W        W34852   2.183  12.395  16.052  0.1504  0.3230  0.3395
31255W        W34853   7.498   1.352   8.812  0.0389  0.3194 -0.1494
31256W        W34854   8.943   3.865   3.682 -0.0885  0.1256 -0.2270
31257W        W34855   4.491   5.347   3.271  0.1006  0.3257 -0.2394
31258W        W34856   3.976   7.911   0.814  0.0419  0.0175  0.0590
31259W        W34857   3.236   2.780  12.689 -0.0734  0.1993 -0.2729
31260W        W34858   3.049  11.648   9.452  0.2101 -0.2235  0.3407
31261W        W34859   0.996   0.641   9.926  0.4074  0.2313  0.0113
31262W        W34860   3.609  13.177   3.394  0.0611  0.1833  0.1616
31263W        W34861   1.983   8.408  12.819  0.1175 -0.1287  0.0816
31264W        W34862   0.192   9.853   9.705 -0.0060  0.3294 -0.1968
31265W        W34863  14.895  14.181  15.862 -0.0428  0.0226 -0.1740
31266W        W34864   1.213   6.904   9.342  0.1626 -0.0931 -0.1033
31267W        W34865  14.628   8.740   9.230  0.1107  0.0459  0.1879
31268W        W34866   0.771   3.472  14.928  0.0790  0.0935 -0.0725
31269W        W34867   5.623   9.828  11.821  0.1064 -0.3412  0.2297
31270W        W34868   5.046   2.250   2.011 -0.0086  0.0973  0.0807
31271W        W34869  13.153   0.300  14.938  0.3181  0.1300 -0.0200
31272W        W34870  14.083  14.722  13.869  0.1518  0.0261  0.1083
31273W        W34871   9.389  12.415  10.161 -0.1030  0.1655  0.2335
31274W        W34872   9.158   8.113  10.795 -0.3209 -0.1475 -0.1278
31275W        W34873  14.662  14.276   1.565  0.1048 -0.2385  0.3082
31276W        W34874   6.821   3.484   4.283  0.0617 -0.1138  0.1649
31277W        W34875   4.784  12.141   8.463 -0.0394  0.1153  0.2571
31278W        W34876  11.493  15.866   9.085  0.0957  0.3161  0.0958
31279W        W34877  11.586   2.137   3.281 -0.1826  0.3080  0.0784
31280W        W34878   5.511   9.005   6.310  0.1857  0.0315 -0.3485
31281W        W34879   9.606   3.686  11.841 -0.3718  0.1896 -0.0415
31282W        W34880   4.569  13.296   4.292 -0.1282 -0.1338 -0.1089
31283W        W34881   6.395   0.082  11.850  0.1410 -0.1038 -0.0657
31284W        W34882   9.501  12.610   4.935  0.3392  0.0940 -0.0566
31285W        W34883   7.602   8.586   2.524 -0.0793  0.1440  0.0209
31286W        W34884  13.066  15.518   1.550 -0.1998 -0.2816 -0.1095
31287W        W34885   4.137   5.791   6.684 -0.0007 -0.3787 -0.2325
31288W        W34886   4.967   1.070   2.893  0.0068 -0.0053 -0.0762
31289W        W34887  13.951   1.259  12.193 -0.1295  0.0192  0.1270
31290W        W34888  12.595  15.352   8.541 -0.1055 -0.1425 -0.0987
31291W        W34889   1.477   2.894   4.885  0.1847  0.0138 -0.0210
31292W        W34890   6.177   5.666   5.799  0.1378 -0.0207  0.1796
31293W        W34891   8.164  13.491   2.164 -0.2628 -0.3553 -0.1087
31294W        W34892   4.182   5.021  14.000  0.0752 -0.0044 -0.0470
31295W        W34893   4.838   9.156   5.567 -0.1616  0.1864  0.0415
31296W        W34894   1.495  10.766  16.075 -0.1431 -0.2462 -0.0242
31297W        W34895  15.501   8.871   1.781 -0.1433 -0.0439  0.3293
31298W        W34896  12.037  15.949  10.423 -0.0949 -0.1068  0.0080
31299W        W34897   7.067   6.794  12.204 -0.0508 -0.4736 -0.1049
31300W        W34898   4.742  15.240   0.742 -0.4816 -0.1702  0.2138
31301W        W34899  15.214   3.877  10.090 -0.0538  0.0919  0.0733
31302W        W34900   0.719   1.069   9.108  0.0003  0.2489  0.0247
31303W        W34901  13.099   0.673   2.055 -0.1079 -0.0008 -0.3488
31304W        W34902  13.396  11.053   9.024  0.0028  0.3157  0.1176
31305W        W34903  10.168   4.577  11.526  0.1423  0.0572  0.3269
31306W        W34904   3.100  15.837  10.788  0.0828  0.1044  0.1251
31307W        W34905  11.728   8.459  14.468 -0.2112  0.1134  0.1152
31308W        W34906  10.794  16.083   4.977  0.0473 -0.1769  0.0691
31309W        W34907   7.915  15.014   6.678 -0.2504  0.1042  0.0700
31310W        W34908   1.307   9.991   9.849 -0.0643 -0.3556  0.1115
31311W        W34909  14.787  11.253   6.689  0.1052  0.2655 -0.0895
31312W        W34910  10.435  10.268   1.425  0.2940  0.0065  0.2189
31313W        W34911   4.283  14.128   1.933  0.1727 -0.0643  0.2507
31314W        W34912  12.736   6.740   5.619  0.0908 -0.1478  0.1839
31315W        W34913   4.638   3.820   4.396 -0.0190 -0.2848 -0.2906
31316W        W34914   3.428   3.015  12.246 -0.0606  0.2014 -0.2510
31317W        W34915   4.112   4.189   4.079  0.0468  0.0434 -0.6492
31318W        W34916  15.222   0.804   3.434  0.0560  0.0328  0.2154
31319W        W34917   9.034  14.148   3.167  0.4039 -0.0830 -0.2206
31320W        W34918  10.786  12.977  13.782  0.0696 -0.0441 -0.0539
31321W        W34919  11.725  12.320   2.418 -0.1033 -0.0119  0.0394
31322W        W34920   3.388  12.946  11.042  0.0380 -0.0217 -0.1077
31323W        W34921  16.236   4.788  12.213 -0.1408 -0.3581 -0.1509
31324W        W34922   3.340   1.906   7.795  0.0351 -0.0886 -0.0465
31325W        W34923   8.388   9.781   1.352 -0.0679  0.1156  0.0804
31326W        W34924   1.739   4.188   3.900  0.2139  0.0499  0.1509
31327W        W34925  13.654  11.701  16.238 -0.0599 -0.3027  0.0814
31328W        W34926   9.700   9.608   0.254  0.0228  0.0850 -0.0808
31329W        W34927   6.384   2.012   0.572  0.1376  0.1246 -0.1896
31330W        W34928   0.625  11.371   0.776  0.0200  0.1453  0.2003
31331W        W34929   0.577  10.430   0.586 -0.2325  0.1903  0.0211
31332W        W34930   9.761   1.029  12.331 -0.2137  0.0483 -0.2172
31333W        W34931   9.271   8.732   9.238 -0.1195 -0.3118 -0.3731
31334W        W34932  13.149   9.839   7.746 -0.0461  0.0127  0.0466
31335W        W34933   9.273   8.439   7.415  0.0694  0.2645  0.0230
31336W        W34934   1.061  11.817  15.798 -0.1649  0.0770 -0.3427
31337W        W34935  14.826  12.438  10.954 -0.1321  0.0314  0.1301
31338W        W34936   4.787   9.450  14.506  0.0212  0.2786 -0.1935
31339W        W34937  15.999   0.986  12.116 -0.0234  0.0048 -0.1681
31340W        W34938  13.095  15.470   8.949 -0.2574 -0.0877 -0.2706
31341W        W34939   4.092   8.303   0.597  0.0862  0.1366 -0.1212
31342W        W34940   2.217   5.872  11.741 -0.0469 -0.0054 -0.2321
31343W        W34941  11.955  10.517   2.508 -0.1354 -0.3157 -0.3525
31344W        W34942   1.725   1.453   0.369  0.1627 -0.0151 -0.2054
31345W        W34943   7.709   9.258  14.570  0.0735  0.1072 -0.5198
31346W        W34944  14.797   3.144   0.600  0.1318 -0.0246 -0.0298
31347W        W34945  10.637   0.328   7.591 -0.0297  0.1619  0.1474
31348W        W34946  13.883   1.827  13.733 -0.1079  0.0904  0.1403
31349W        W34947  16.022  14.229  12.570  0.0409 -0.0808 -0.0014
31350W        W34948   1.740   0.916   9.358 -0.0216  0.0593 -0.0575
31351W        W34949  11.197  12.781   0.051 -0.0309  0.1575  0.1164
31352W        W34950  12.110  12.389   8.944  0.0897 -0.0249 -0.2118
31353W        W34951  10.534   4.365  16.058 -0.2664  0.2781 -0.2319
31354W        W34952   5.248  15.327   3.568 -0.2499  0.2913  0.3253
31355W        W34953  11.743   6.663   5.208  0.0132 -0.1402  0.0240
31356W        W34954   1.349  10.276  12.117  0.1632  0.2123 -0.0866
31357W        W34955   0.866  14.680  15.646  0.0591  0.1755  0.0327
31358W        W34956  15.621  15.961   3.081 -0.0196 -0.0890  0.0064
31359W        W34957  12.525   8.772   2.103  0.0546 -0.3263  0.0642
31360W        W34958   8.817   1.782   8.636 -0.0241  0.0508  0.0533
31361W        W34959   6.452  10.034   8.031  0.1136 -0.0703  0.0782
31362W        W34960   4.360   9.168  10.422  0.1905  0.0289  0.2361
31363W        W34961   6.044   1.337  11.820  0.3750  0.0283  0.1297
31364W        W34962  14.162  12.910  12.722 -0.3161 -0.0539  0.2273
31365W        W34963   3.279  15.827  15.264  0.2406 -0.0476  0.0294
31366W        W34964   8.520   3.378  14.009 -0.0201  0.0166  0.0988
31367W        W34965   5.359   2.161  13.358  0.1489 -0.2428  0.2380
31368W        W34966  10.200  12.976  14.990  0.1693 -0.0525 -0.0809
31369W        W34967   9.901  11.571  10.138 -0.1519 -0.0656  0.2196
31370W        W34968   4.920   8.790   1.278 -0.2631  0.2762  0.0791
31371W        W34969  15.178   8.187   8.220  0.2446  0.2397 -0.0546
31372W        W34970   2.345  16.324   9.733 -0.2108  0.2633  0.2434
31373W        W34971  15.139   1.520   2.928  0.1533  0.2116 -0.2044
31374W        W34972   3.064   3.278   8.010  0.0293 -0.4371  0.0289
31375W        W34973  11.340   1.612  14.831  0.1674  0.1588 -0.0238
31376W        W34974  11.038  15.352   1.535  0.1392  0.2492 -0.1428
31377W        W34975   4.721   0.440   8.367  0.1743  0.1987 -0.2564
31378W        W34976  14.814  15.860   5.830 -0.1846 -0.2759  0.0265
31379W        W34977  15.349  10.423   7.183 -0.1068 -0.0549 -0.2557
31380W        W34978  10.231  16.020   4.763  0.3852 -0.1446 -0.0460
31381W        W34979   3.506   5.856   2.744 -0.2579 -0.0876 -0.1449
31382W        W34980   9.123  12.455  14.159  0.0361 -0.0429 -0.1235
31383W        W34981   4.540  13.261   3.100 -0.0762  0.1183 -0.0409
31384W        W34982   2.307   0.761   0.606  0.3957 -0.2594 -0.0021
31385W        W34983   8.587   3.619  11.153  0.0066 -0.1234 -0.0312
31386W        W34984   0.849   5.968   3.821 -0.0917  0.1261 -0.0265
31387W        W34985  12.496   4.146  13.873 -0.1430  0.2671 -0.0584
31388W        W34986  11.564   8.007  10.619 -0.1993  0.2031  0.0468
31389W        W34987   9.077   2.206  10.983  0.1295 -0.1025 -0.0254
31390W        W34988   3.617  11.416   4.658  0.0266  0.0854  0.1068
31391W        W34989   9.536  15.270   4.452 -0.0660 -0.0887 -0.1703
31392W        W34990   9.696  15.131   3.201 -0.1986  0.2185  0.2073
31393W        W34991   9.669  11.656   9.146  0.2689 -0.2476  0.1180
31394W        W34992   7.621   3.665  13.678 -0.0527  0.2631 -0.1965
31395W        W34993   4.845   6.937   4.920 -0.0884 -0.1620 -0.2177
31396W        W34994  12.138   3.249  14.566  0.2152 -0.0715 -0.0777
31397W        W34995   2.331  14.745   6.429  0.2174 -0.0489  0.3228
31398W        W34996   8.248   1.631   8.900 -0.1961  0.1742  0.0184
31399W        W34997   4.925  14.523   5.268 -0.0692 -0.0896  0.0153
31400W        W34998  14.235  15.995  13.005 -0.1326 -0.2061 -0.0471
31401W        W34999  16.166   8.735   3.822 -0.0423  0.1670 -0.0209
31402W        W35000   0.331   3.617  14.736 -0.0027  0.1252 -0.3650
31403W        W35001   1.434   2.430   4.612  0.0733 -0.4778  0.0904
31404W        W35002   3.576   5.643   9.675 -0.3739  0.4436  0.1728
31405W        W35003  12.086  15.376  16.104 -0.0421 -0.2239  0.2465
31406W        W35004  11.246  13.858  11.087 -0.0597  0.0621 -0.2532
31407W        W35005   1.064   2.363   8.879 -0.0424  0.0141 -0.2702
31408W        W35006  10.553  14.915   2.568  0.1985 -0.0367 -0.2773
31409W        W35007   3.197   2.402  10.144 -0.0504  0.1879 -0.0064
31410W        W35008   0.752  10.870  10.701 -0.1394  0.0598 -0.1840
31411W        W35009  11.305  11.016   3.516 -0.0835 -0.1083  0.1419
31412W        W35010   5.456  14.179  16.246  0.3836 -0.0048  0.1230
31413W        W35011   1.851   7.861   0.551  0.1430 -0.1428  0.3339
31414W        W35012   3.406   1.220  12.430  0.1084 -0.1820  0.0537
31415W        W35013   9.205   7.257  12.012  0.4615  0.0129  0.0843
31416W        W35014  11.184  12.369   0.865 -0.0159  0.1570  0.2020
31417W        W35015  10.453  16.339  16.008  0.2456  0.0832 -0.2992
31418W        W35016  10.820   1.610   2.384 -0.1605  0.2050 -0.0418
31419W        W35017  11.906   0.199  12.831  0.3581  0.0357  0.0465
31420W        W35018  11.220   9.602  15.892  0.1353 -0.1683 -0.2316
31421W        W35019   9.430   5.372   9.106 -0.0251  0.1909  0.0905
31422W        W35020   0.737  12.203   7.933  0.0777 -0.1089  0.1474
31423W        W35021  13.880   2.338  13.883 -0.0200 -0.0829 -0.0835
31424W        W35022   8.246  14.614  15.272 -0.0881  0.0935  0.0221
31425W        W35023   9.076   1.306   6.424  0.2473 -0.2554 -0.2786
31426W        W35024  14.247  16.179   4.186  0.2661  0.0367 -0.1244
31427W        W35025   5.371   6.806  14.294  0.0993 -0.0360 -0.0244
31428W        W35026   2.144   6.527  10.961 -0.0092 -0.2733 -0.2106
31429W        W35027  11.588   5.651  14.652 -0.1600  0.0090 -0.1731
31430W        W35028  12.778  12.892  10.553  0.0303 -0.1135  0.0960
31431W        W35029  15.886  13.013   1.352  0.0338 -0.1486 -0.0875
31432W        W35030  13.545   8.597   0.030  0.1730  0.4377  0.1441
31433W        W35031  16.383   3.608   2.935 -0.3454 -0.1481 -0.0864
31434W        W35032  15.022   7.427   3.185 -0.0825  0.0983 -0.1815
31435W        W35033   7.865  11.699  14.665 -0.1438  0.1267 -0.1889
31436W        W35034  12.964  10.232   9.273  0.0418 -0.1141  0.2214
31437W        W35035   5.581   1.336   4.154  0.1635  0.0056  0.2375
31438W        W35036   9.406  13.852   3.027  0.0152  0.0786  0.1741
31439W        W35037   9.783   4.719   8.802 -0.0931 -0.1126  0.2636
31440W        W35038  16.248  12.893  16.078  0.2706  0.0834  0.0111
31441W        W35039   4.544   4.488   3.214 -0.2427 -0.1144 -0.1504
31442W        W35040  14.189   9.096  15.223  0.0355  0.3169 -0.1686
31443W        W35041   7.403  14.207  10.704  0.0765  0.1658 -0.0277
31444W        W35042   6.764  16.116   0.675  0.0855  0.1608  0.2987
31445W        W35043   0.937  13.785  13.059 -0.1250 -0.1083  0.3886
31446W        W35044   1.186  13.041  12.147 -0.2761  0.2495  0.1128
31447W        W35045   1.560   6.794  11.567 -0.0797 -0.0802 -0.2648
31448W        W35046   1.586   2.179   9.257  0.0091  0.1390 -0.2816
31449W        W35047   9.866  12.354  10.308  0.3247  0.2016 -0.2260
31450W        W35048  13.123  15.272  12.363  0.0733 -0.0547 -0.0467
31451W        W35049   4.436   6.685  10.395 -0.1389  0.3097 -0.3313
31452W        W35050   3.944   7.478  14.195  0.1123 -0.0687  0.2603
31453W        W35051  13.634  14.413  10.795  0.2909  0.1226  0.0830
31454W        W35052   1.185   2.106  15.977 -0.1275 -0.0108  0.0915
31455W        W35053   2.250  11.841  13.108 -0.0058  0.1555 -0.0178
31456W        W35054   3.649  10.401   3.629 -0.3095 -0.1086  0.0741
31457W        W35055  14.463  10.302   8.755 -0.0825  0.2643 -0.0460
31458W        W35056  10.778   9.067   5.973 -0.2761  0.3186  0.1171
31459W        W35057  10.086  13.413  14.129  0.0644  0.0425  0.2573
31460W        W35058  13.357   4.244   1.509 -0.0037 -0.0852 -0.2291
31461W        W35059   2.095   3.149   3.310  0.0584 -0.0899 -0.2365
31462W        W35060  14.405   4.829   5.791 -0.2338 -0.1650 -0.1570
31463W        W35061   6.261   6.258  15.374 -0.0820  0.1074 -0.0635
31464W        W35062  15.111   5.349   2.711 -0.0094  0.0840 -0.0850
31465W        W35063   1.277   6.865  15.484 -0.1338 -0.3080  0.6216
31466W        W35064  10.087   2.426   8.191 -0.0758  0.3067 -0.0432
31467W        W35065  12.646  13.253   6.293 -0.0087 -0.3984 -0.0039
31468W        W35066   6.733   2.434  15.970 -0.0511 -0.0312  0.1492
31469W        W35067  16.158   7.207   0.705  0.0367 -0.2179  0.0152
31470W        W35068  11.761   3.486   0.885  0.2281 -0.3624  0.3013
31471W        W35069   2.205  14.250   1.046 -0.0552 -0.1260  0.1940
31472W        W35070  13.683   8.711   5.178  0.0585 -0.2182 -0.1377
31473W        W35071   6.195   7.018   5.389 -0.0331  0.0485 -0.1923
31474W        W35072   4.510   7.045  15.517 -0.0093 -0.3230  0.3726
31475W        W35073   4.887  13.033   5.052 -0.0678  0.0869  0.4367
31476W        W35074  15.601   6.200   8.866  0.0560  0.0847  0.0838
31477W        W35075   2.323   0.427   4.213 -0.1517 -0.1404  0.1003
31478W        W35076   6.398  13.038  12.523  0.1380  0.2656  0.0753
31479W        W35077   1.196   5.185   3.435  0.5797  0.1787  0.0071
31480W        W35078  13.387   4.820  10.647  0.2475  0.3843 -0.1002
31481W        W35079  12.171   7.747   6.492  0.0102 -0.1315 -0.0547
31482W        W35080   1.427   7.286  12.788 -0.0088  0.2095  0.2448
31483W        W35081  15.241   9.767   6.765  0.2120 -0.0503 -0.0038
31484W        W35082   4.821   7.785   7.240  0.0513 -0.1548  0.1957
31485W        W35083   4.171  16.159   1.842  0.2244 -0.2361  0.3458
31486W        W35084   6.205  14.327  11.344  0.1110 -0.3913 -0.0799
31487W        W35085  15.938   8.728  13.601 -0.0640 -0.0640 -0.0894
31488W        W35086  14.952   6.277  10.206  0.4353 -0.0281  0.0663
31489W        W35087   5.621   4.993  15.723  0.3784 -0.1207 -0.1902
31490W        W35088   0.738   2.764   0.976 -0.4165  0.0878  0.1678
31491W        W35089  14.559   4.277  14.520 -0.1275  0.0573 -0.0596
31492W        W35090  15.862   2.585  11.695 -0.2842 -0.1917 -0.0409
31493W        W35091  13.296   7.335   1.748 -0.1308  0.0256 -0.1833
31494W        W35092  14.942   7.733   2.792  0.3839  0.2828  0.2157
31495W        W35093   6.931   0.307   8.334 -0.0596 -0.1520  0.0027
31496W        W35094  15.494   8.422   7.529 -0.0377 -0.1027 -0.2140
31497W        W35095   8.837  12.698   4.118 -0.3961  0.1012  0.0857
31498W        W35096   0.290   5.241  11.591 -0.2931 -0.3026 -0.0422
31499W        W35097  14.605   2.294   1.316  0.2269  0.0285 -0.1105
31500W        W35098  15.168   4.217   1.157  0.3943  0.1802  0.1448
31501W        W35099   6.802  10.644  15.053 -0.0765  0.3093 -0.0339
31502W        W35100  11.579  10.872  13.633  0.1648 -0.3199  0.2091
31503W        W35101  15.988   1.470   8.355 -0.1800 -0.1515  0.0134
31504W        W35102   0.086   8.856   5.186 -0.0378  0.0722  0.1278
31505W        W35103  15.439  14.790   4.462 -0.0035 -0.0865  0.3197
31506W        W35104   8.753   7.271  10.144  0.3307 -0.0068 -0.0588
31507W        W35105  15.103   1.323   8.863  0.2453  0.0206  0.2888
31508W        W35106  14.767  15.979   6.351 -0.1710  0.1207 -0.1032
31509W        W35107  15.073  13.530   7.867 -0.4262  0.3533 -0.0510
31510W        W35108  13.861  11.612  11.782 -0.1519 -0.2036  0.2417
31511W        W35109  12.046   2.774   6.896  0.1680 -0.2598 -0.4718
31512W        W35110  10.951  13.009   9.621  0.1604  0.0678  0.0986
31513W        W35111  10.801  10.667   9.772  0.0440  0.0505 -0.1725
31514W        W35112   2.110   3.105  14.252 -0.1718  0.2150 -0.1387
31515W        W35113  11.109   9.110  10.821  0.0526  0.2015 -0.0767
31516W        W35114   1.513   6.002   6.796 -0.1707  0.1310 -0.0933
31517W        W35115   0.672   5.730   1.332 -0.2162  0.1123  0.1373
31518W        W35116  13.249   3.624   7.507  0.1200  0.1141  0.0503
31519W        W35117   9.871   0.974  14.284  0.2846  0.0252 -0.0554
31520W        W35118   8.144   4.351  10.347  0.3638 -0.0896 -0.1663
31521W        W35119   4.584  14.249   6.644 -0.0371 -0.1055 -0.1587
31522W        W35120  15.681   2.539   4.360 -0.0538 -0.1395 -0.0908
31523W        W35121  13.377   6.274   4.802  0.0762  0.0280 -0.0263
31524W        W35122   0.463   7.551  15.757 -0.2711 -0.2387  0.0082
31525W        W35123   2.925  13.374  10.845  0.0383  0.0562 -0.5162
31526W        W35124   2.784   3.055  12.629  0.4011 -0.0769 -0.2949
31527W        W35125  12.004  14.201   7.603 -0.1963 -0.2946 -0.1574
31528W        W35126  15.264   8.968   1.231 -0.1939 -0.0927  0.0310
31529W        W35127   4.171   1.592   6.085  0.2820  0.1656 -0.0630
31530W        W35128  10.850  14.679   5.398  0.1300 -0.0767 -0.0675
31531W        W35129   0.199   2.878   8.588  0.0198 -0.1255 -0.3357
31532W        W35130   3.739   9.519   2.151  0.2423  0.3898  0.1582
31533W        W35131   5.119   4.389   6.219  0.1414  0.1572  0.0678
31534W        W35132  13.421   4.370  15.944 -0.2129 -0.1513 -0.0563
31535W        W35133  11.747   1.211   0.853  0.0020 -0.0994 -0.1386
31536W        W35134   1.100  14.389   4.124 -0.1088  0.1630  0.2045
31537W        W35135   9.412  16.029   7.343  0.1701  0.1642 -0.0576
31538W        W35136   5.703   1.390  14.729  0.3980 -0.0534  0.3567
31539W        W35137  11.728  10.234   3.743  0.0342 -0.0957  0.0052
31540W        W35138   9.332   9.301  12.263  0.1627 -0.2282  0.1326
31541W        W35139   7.890   1.596   2.181  0.1012 -0.0162  0.1803
31542W        W35140   5.259   7.063  12.905  0.0223  0.0359  0.0866
31543W        W35141   0.367   8.748   4.540  0.3242 -0.4315 -0.3206
31544W        W35142   2.529   7.014   3.358 -0.1283  0.3782  0.0104
31545W        W35143   7.206   3.597   5.936  0.1817 -0.1546  0.0931
31546W        W35144  12.026  11.372   2.173  0.2215  0.1787  0.0286
31547W        W35145  13.844   2.633  14.942  0.0148 -0.3290  0.2682
31548W        W35146  11.268   4.638   8.405 -0.0436 -0.0948 -0.0046
31549W        W35147   0.383   2.283  14.376  0.1442 -0.3285 -0.3404
31550W        W35148  15.526   8.968   6.524  0.4372  0.1072 -0.0368
31551W        W35149   9.531  15.688   5.144  0.0399 -0.0785  0.1821
31552W        W35150  14.324  10.813   7.284  0.0295  0.1418 -0.2221
31553W        W35151  14.363   4.479   8.659  0.0399  0.3398  0.0714
31554W        W35152  10.934  16.243  15.737  0.0567 -0.1224  0.2687
31555W        W35153   0.027   0.947   2.428 -0.0756 -0.0185  0.3272
31556W        W35154   2.387  12.795  11.695 -0.3753  0.2084 -0.0568
31557W        W35155   2.003   6.676  12.166  0.1584  0.3395 -0.0797
31558W        W35156   7.187   1.219  10.647  0.1009  0.2521  0.0509
31559W        W35157   4.260  11.800   1.618 -0.0342  0.1379  0.1637
31560W        W35158   5.387   9.619   1.161 -0.0072 -0.0813 -0.0011
31561W        W35159  12.984   8.532  16.307 -0.0154  0.5294 -0.2568
31562W        W35160  12.753  14.353   2.013 -0.0699 -0.0554 -0.0217
31563W        W35161  10.680   1.583   8.524  0.0157  0.1341 -0.0504
31564W        W35162   1.671   3.782   8.140  0.0305 -0.3339  0.2596
31565W        W35163   7.297   4.029  14.901 -0.0254  0.2801  0.0387
31566W        W35164   9.844  10.168   1.120  0.1125  0.0540  0.1702
31567W        W35165   4.914   8.836   7.872 -0.0183  0.1158 -0.0759
31568W        W35166   9.393   1.906   5.774  0.3218  0.1080  0.0778
31569W        W35167  14.180   2.622  10.711 -0.2156  0.1020  0.0599
31570W        W35168   5.366   8.277  12.535 -0.2227  0.0358  0.2576
31571W        W35169  13.921   0.464   3.794  0.0690 -0.1397 -0.0030
31572W        W35170   1.331  16.127   0.612  0.1146  0.1022  0.1367
31573W        W35171  12.686   4.904   4.549 -0.3689  0.2353 -0.1561
31574W        W35172   0.062   9.823  16.382  0.0867 -0.1285 -0.0711
31575W        W35173   9.415  11.582  16.236  0.3280  0.0305 -0.1824
31576W        W35174  11.436   2.177   9.458 -0.0711  0.3125 -0.1708
31577W        W35175   1.517   9.479   5.670 -0.1337  0.2330 -0.1025
31578W        W35176   9.681   1.015   1.930  0.1318 -0.0650 -0.2545
31579W        W35177   6.513   8.121  10.359 -0.0557 -0.0042 -0.2116
31580W        W35178   7.989   6.506  11.159  0.0556  0.0727 -0.2645
31581W        W35179   7.955   5.890   6.194  0.0496 -0.1069 -0.2743
31582W        W35180  15.226   5.741   3.907  0.1444 -0.2360 -0.0724
31583W        W35181   8.190  10.193   7.524 -0.0706 -0.0044  0.0817
31584W        W35182  12.077   0.548   6.426 -0.3285  0.0336 -0.0333
31585W        W35183   6.684   3.521  15.863  0.0266  0.2465 -0.2511
31586W        W35184   9.130   6.402   4.602 -0.2078  0.0158  0.0383
31587W        W35185   9.036   6.839   7.304  0.0488 -0.0073 -0.1171
31588W        W35186   2.023   5.062   2.708  0.0261  0.1790  0.4489
31589W        W35187   6.751  11.328  13.763 -0.0008  0.3403  0.1180
31590W        W35188   5.722   1.021   3.300 -0.2590 -0.2551 -0.1664
31591W        W35189  10.926  12.583  14.101  0.0168  0.1790 -0.3098
31592W        W35190  16.094   8.635  12.742 -0.1569  0.1132  0.0416
31593W        W35191  10.714   4.987   3.847  0.0433  0.0748 -0.2704
31594W        W35192   3.563  16.049   7.973  0.0029  0.1096  0.2818
31595W        W35193   8.357   5.326  14.389  0.0615  0.1580  0.0542
31596W        W35194  13.608   9.907   3.024  0.1935 -0.2944  0.3323
31597W        W35195  13.064   8.142   2.270 -0.0799 -0.2749  0.0115
31598W        W35196   4.536  12.367   6.880 -0.0457 -0.3444 -0.0665
31599W        W35197  15.860   0.612   1.374 -0.1358  0.0306 -0.1144
31600W        W35198   2.215   4.671   5.831  0.2365  0.0043  0.0377
31601W        W35199   4.516   2.106  14.065 -0.0903 -0.1024 -0.0626
31602W        W35200   1.472   1.498   1.323 -0.3182  0.1319 -0.2400
31603W        W35201  12.068   4.759  12.575  0.2594 -0.0446 -0.0931
31604W        W35202  13.366  13.118  12.161  0.0788 -0.0583 -0.3099
31605W        W35203   4.389  14.270   0.877  0.1773  0.3330  0.1561
31606W        W35204   0.621  11.901   4.999 -0.0837  0.0661  0.2728
31607W        W35205   5.760   9.843  12.369  0.1821 -0.1345 -0.3324
31608W        W35206   2.709  14.794   9.894 -0.2034 -0.1798  0.0384
31609W        W35207  14.361  11.268  15.763 -0.0633 -0.1623 -0.1908
31610W        W35208  12.103   8.048   5.226  0.0494 -0.2295  0.1223
31611W        W35209  10.905  11.687   8.002 -0.0060 -0.0377 -0.2142
31612W        W35210  12.072  10.317   6.472  0.0811 -0.0638 -0.1928
31613W        W35211   0.780  13.580   3.169 -0.1309  0.0992  0.1216
31614W        W35212   2.964   7.928   8.387  0.0477 -0.1549  0.1874
31615W        W35213   5.899  10.057   7.891  0.3943 -0.2646 -0.0880
31616W        W35214  10.529  11.154   3.435  0.0303 -0.1600  0.2232
31617W        W35215   0.828   2.618   2.548 -0.0566  0.3008  0.0240
31618W        W35216   6.524   4.926   5.280  0.0053  0.1167 -0.2043
31619W        W35217  11.660   1.413  15.167 -0.1168 -0.0663  0.2498
31620W        W35218   0.470   0.815  12.705  0.1977  0.2369 -0.0085
31621W        W35219   5.848   9.820   5.005  0.0554  0.0935 -0.1386
31622W        W35220   9.072   4.578   8.697 -0.1950  0.0423  0.0038
31623W        W35221  14.719   8.152   6.862 -0.0806  0.0915  0.2698
31624W        W35222   8.120  10.028   6.615 -0.1288  0.0602 -0.0805
31625W        W35223   9.718   8.283  15.191 -0.1847 -0.0480  0.0006
31626W        W35224   6.040   8.060   2.729  0.0267  0.1427  0.1967
31627W        W35225   7.038   6.426  10.443  0.0536 -0.2520  0.2100
31628W        W35226  15.562   4.950  11.358 -0.1422  0.1885  0.2867
31629W        W35227  11.370   9.793   0.887  0.1186 -0.1178  0.1918
31630W        W35228   0.419   5.564  12.083  0.0313 -0.0373 -0.1075
31631W        W35229  16.356   7.689   0.945 -0.0037  0.0238 -0.2223
31632W        W35230  12.461   1.233  10.888 -0.0551 -0.1637  0.2971
31633W        W35231   6.670  12.408  11.261 -0.0009  0.0698  0.0817
31634W        W35232  12.992   2.345   7.989 -0.2120 -0.1426 -0.1277
31635W        W35233   4.793   2.919  11.799  0.0428  0.0498  0.0044
31636W        W35234   5.092   1.973  11.839 -0.0444 -0.1946 -0.2329
31637W        W35235  14.120   3.769   2.712  0.1684  0.0232 -0.0618
31638W        W35236  15.824  11.180  14.720  0.1761  0.2494 -0.3156
31639W        W35237  15.270  13.417   1.490  0.2583 -0.1613  0.0599
31640W        W35238   8.319   8.047   9.328 -0.1912 -0.1332  0.1966
31641W        W35239  15.980  14.139  15.678 -0.2124  0.3736 -0.1488
31642W        W35240   6.301   6.830   4.687 -0.1978  0.1651  0.1820
31643W        W35241  11.079   3.161  14.182  0.1118 -0.1713 -0.0806
31644W        W35242  16.385  13.192   8.263  0.1191 -0.1169 -0.2703
31645W        W35243  12.058  15.682   5.895 -0.0597  0.0983 -0.1085
31646W        W35244   6.681  16.347   8.533 -0.1331  0.0857  0.0379
31647W        W35245  11.979  12.917   8.927 -0.1257  0.0755 -0.0984
31648W        W35246   6.462   3.872  15.513 -0.0199  0.2149  0.1714
31649W        W35247  11.897   7.270  14.379 -0.0685 -0.0831  0.0584
31650W        W35248  10.204   0.186  10.552 -0.0536  0.2393 -0.0295
31651W        W35249   4.697  11.783  11.570 -0.3342  0.3081  0.0723
31652W        W35250   9.753  10.318   8.173 -0.2569 -0.2319  0.0532
31653W        W35251  14.111   0.326   7.800 -0.1978 -0.3158 -0.2047
31654W        W35252   9.649   5.664   4.326  0.2118  0.2412  0.3547
31655W        W35253  12.871  10.966  15.229 -0.0773  0.2069 -0.3465
31656W        W35254   4.302   8.710   1.384  0.1690 -0.2452  0.0928
31657W        W35255  15.139   8.338   7.071 -0.1182  0.0452  0.0158
31658W        W35256  15.468   0.372   3.829  0.1350  0.1843 -0.1026
31659W        W35257   4.222  13.010   5.534 -0.2349 -0.0870  0.0193
31660W        W35258  11.049   3.713   5.614 -0.1745 -0.1330  0.2427
31661W        W35259   0.644  10.539   8.851  0.0307  0.1937  0.2868
31662W        W35260   0.349  12.345  14.924 -0.2099 -0.2621 -0.2518
31663W        W35261   3.469   4.960  12.069 -0.2694 -0.3541 -0.0242
31664W        W35262   5.627  12.964  11.870 -0.0551  0.1721 -0.3488
31665W        W35263   6.239   8.126  12.233  0.3460 -0.1189  0.0002
31666W        W35264   1.271   4.852  15.884  0.1952  0.0069  0.1303
31667W        W35265  15.104  14.426   0.387 -0.0027  0.1611 -0.0460
31668W        W35266  12.191  11.902   5.640 -0.1365  0.0128 -0.1788
31669W        W35267   3.074   1.553  10.244 -0.0315  0.1518  0.4106
31670W        W35268   9.794   4.233   3.209  0.2741  0.0775  0.0378
31671W        W35269  13.591  12.268   2.882 -0.0014  0.0744  0.0287
31672W        W35270   1.378  13.592   3.490 -0.0310 -0.1069 -0.0582
31673W        W35271  11.145   7.393   9.197 -0.0512  0.0922 -0.0550
31674W        W35272   1.800  10.923  10.908 -0.2759  0.0228  0.2854
31675W        W35273   0.705   8.384  12.727 -0.2660  0.2169  0.0772
31676W        W35274   6.295   5.882   8.726 -0.1008 -0.4568 -0.1653
31677W        W35275  10.883   9.539   1.893 -0.2846 -0.1806 -0.1937
31678W        W35276   8.917   6.430   3.542 -0.0062  0.0606 -0.0473
31679W        W35277  15.747   0.473   8.684 -0.0974 -0.3853  0.2922
31680W        W35278  14.804  11.777   5.003 -0.0180 -0.1633  0.2477
31681W        W35279  12.908  14.414   2.515 -0.0790 -0.1519 -0.1411
31682W        W35280   5.392  14.246  10.996 -0.0607 -0.3066  0.0213
31683W        W35281   9.689   5.517   7.586 -0.0888 -0.3692  0.1137
31684W        W35282  12.196   4.715   4.669  0.2406  0.2754 -0.2251
31685W        W35283  14.173  10.814  14.568 -0.2775 -0.0682  0.0369
31686W        W35284  15.009   4.901   7.658 -0.0053  0.1221  0.2404
31687W        W35285  13.276   6.040   1.279 -0.0992  0.3445 -0.1332
31688W        W35286   9.767   6.600   9.865  0.0371 -0.4144 -0.0471
31689W        W35287  11.666   3.214  15.368  0.4332 -0.2596  0.0763
31690W        W35288  14.024   2.732   9.679 -0.3969 -0.1725  0.2092
31691W        W35289   6.737   3.135   4.829 -0.0381 -0.1832 -0.2518
31692W        W35290   5.626   7.875  10.412 -0.1379  0.0628  0.0211
31693W        W35291   6.962   4.427   4.145  0.1384 -0.0127  0.0980
31694W        W35292   5.177   0.994   3.925 -0.0635 -0.0926  0.0903
31695W        W35293   0.457   1.201  16.003 -0.1363  0.2568 -0.1093
31696W        W35294   7.707   9.923  10.252 -0.0059 -0.1462  0.1719
31697W        W35295  10.669   7.849   5.000 -0.1123 -0.1295  0.0534
31698W        W35296  11.773   5.688   1.681 -0.0759  0.0707 -0.2138
31699W        W35297  13.296  14.334   5.436  0.2454 -0.1080 -0.0901
31700W        W35298   6.735   4.271  11.700  0.0334  0.0704  0.0383
31701W        W35299   3.715   0.018   3.874  0.0439  0.0491 -0.0781
31702W        W35300   2.587   5.348   0.315  0.0404 -0.1032  0.2137
31703W        W35301   9.308   6.530   9.701 -0.1051 -0.1216  0.0523
31704W        W35302  14.413   1.124   3.998 -0.0505 -0.0012  0.0090
31705W        W35303  13.003   3.951   6.353 -0.1223  0.2833 -0.2154
31706W        W35304   0.478  15.469   9.696  0.1020  0.1347 -0.2798
31707W        W35305  15.001  14.982  11.028 -0.0492 -0.3435 -0.0812
31708W        W35306  13.528   6.217   5.857 -0.0964 -0.3652  0.4760
31709W        W35307   5.648  12.698  13.155  0.2020  0.0853 -0.1718
31710W        W35308   5.413   4.155   9.964  0.4119  0.1263 -0.0613
31711W        W35309  11.675   0.389   8.674  0.0641 -0.0331 -0.3897
31712W        W35310  12.326  14.538  11.568 -0.2698  0.1296 -0.1846
31713W        W35311  14.550   8.241   3.759 -0.2836 -0.1112  0.2309
31714W        W35312   9.605  14.796  11.469 -0.1152 -0.2994  0.0059
31715W        W35313   7.590  15.488   5.206 -0.1731 -0.1295  0.0957
31716W        W35314  10.348   5.335  11.469  0.1885  0.1571  0.0561
31717W        W35315   8.722   7.436   7.586  0.1818 -0.2140  0.2621
31718W        W35316   6.375   7.825   9.906 -0.3783 -0.2049  0.1157
31719W        W35317   2.051  12.335   6.549 -0.0110 -0.0878  0.0903
31720W        W35318   4.494   6.910  12.639  0.1880 -0.2143 -0.2626
31721W        W35319   0.649   4.002   7.323  0.0689 -0.2891 -0.1618
31722W        W35320  15.064   3.867   2.986  0.1060  0.2169  0.1516
31723W        W35321   3.470   4.036   0.623  0.0013 -0.3109 -0.1287
31724W        W35322  10.544   6.293   3.560 -0.0814  0.1534 -0.1723
31725W        W35323  12.624   9.824   2.108 -0.0032 -0.1409  0.2136
31726W        W35324  15.567   4.335   2.373 -0.1697  0.1825  0.2787
31727W        W35325   4.781  15.118   8.246  0.2110 -0.1296  0.2087
31728W        W35326   2.702   5.632  10.409  0.0407  0.3816  0.0979
31729W        W35327   3.882   6.333  15.510 -0.0172  0.2117 -0.0846
31730W        W35328  14.469   7.845   0.968 -0.0618  0.1503  0.1054
31731W        W35329   1.245   0.722  13.474 -0.3077  0.2619  0.0494
31732W        W35330   2.165  11.250   1.506 -0.0301 -0.0609 -0.0163
31733W        W35331   4.808   5.284  12.072  0.3920 -0.0054  0.2434
31734W        W35332  13.582   6.628  14.183  0.2403  0.1696 -0.1031
31735W        W35333   5.251   8.804   4.523  0.3680  0.0939 -0.2187
31736W        W35334   7.622   8.525   6.823 -0.2384 -0.1589  0.0585
31737W        W35335   1.924   5.681   9.350  0.1241  0.0106 -0.0126
31738W        W35336  12.004  15.800   3.019 -0.0331 -0.0246  0.0289
31739W        W35337  10.040  12.188   1.034 -0.0184  0.5349  0.0496
31740W        W35338  13.067   4.887   3.536  0.3919 -0.0333 -0.0608
31741W        W35339   6.892   0.356   2.434  0.0435  0.1091 -0.1493
31742W        W35340   2.318   8.877   5.833  0.1529  0.0604 -0.3833
31743W        W35341  10.326   3.033  14.216 -0.1382 -0.0682 -0.2074
31744W        W35342   6.665   9.188  11.058  0.2510  0.0363 -0.0599
31745W        W35343   9.247  14.073  10.589 -0.1821  0.2604 -0.0328
31746W        W35344   3.614   6.870   9.999  0.1191 -0.2687 -0.2544
31747W        W35345   9.962   1.753  12.760  0.1444 -0.2846 -0.1298
31748W        W35346  11.892   0.292   4.059 -0.1792  0.1057 -0.1800
31749W        W35347   2.530   9.286   0.658  0.1319 -0.0255 -0.0063
31750W        W35348   7.755  10.131   9.765 -0.2549 -0.0703  0.0783
31751W        W35349  11.077   0.950   7.329  0.0397 -0.0631 -0.1009
31752W        W35350   2.642   9.884   8.984  0.1393 -0.0323  0.1794
31753W        W35351  12.255   8.520  16.291  0.1369  0.1698  0.1037
31754W        W35352   9.319   6.269  11.715  0.2227 -0.0109  0.1513
31755W        W35353  10.272   0.361  16.243 -0.0978  0.2400  0.0110
31756W        W35354   8.082  13.213  10.017  0.0447  0.2698  0.0112
31757W        W35355   5.273   6.947  10.095 -0.0604 -0.2123  0.0953
31758W        W35356   5.883  13.559  11.098 -0.0378  0.1531 -0.0666
31759W        W35357  12.304  13.863   1.153  0.1583  0.3172  0.2501
31760W        W35358   1.121   9.456  10.089 -0.2785  0.0030  0.0430
31761W        W35359  11.829  13.202  10.815  0.2551  0.1284  0.2534
31762W        W35360  15.173   1.082   7.966 -0.1021 -0.2978  0.0473
31763W        W35361   5.327  14.046  13.964 -0.1593 -0.1990 -0.0704
31764W        W35362   8.688   5.959   6.529  0.0136 -0.0772 -0.1256
31765W        W35363   1.910   2.566   4.857  0.2021 -0.1173 -0.0961
31766W        W35364   8.723  12.346  13.871 -0.1446 -0.3877  0.0100
31767W        W35365   2.337   0.140  13.254 -0.0278  0.0258  0.2459
31768W        W35366   9.147  12.826  12.333  0.3445 -0.1938 -0.0093
31769W        W35367  13.229  10.533   0.039  0.0342 -0.1978 -0.0270
31770W        W35368  11.347  13.808   3.356 -0.0305 -0.0337 -0.2938
31771W        W35369   2.970  14.676   3.563 -0.2025  0.0915  0.0212
31772W        W35370   0.146   3.736  16.161  0.1830 -0.1070  0.0976
31773W        W35371   1.313   0.134  15.038 -0.1783 -0.2808 -0.0998
31774W        W35372  10.455   8.204   0.738  0.2450 -0.1663 -0.1349
31775W        W35373   7.962  13.287   7.920 -0.0107  0.1117  0.1646
31776W        W35374   4.868   1.345   6.970  0.0543  0.1410 -0.0165
31777W        W35375   0.739   9.566  14.543 -0.1288 -0.1856 -0.0252
31778W        W35376  13.465   4.238   4.486 -0.0417  0.0288  0.0559
31779W        W35377   5.726  12.846   8.062  0.3315  0.3136  0.0404
31780W        W35378   2.468  11.661   0.610 -0.3053  0.0959  0.2141
31781W        W35379   4.598   5.086   6.264  0.0816 -0.3069  0.2781
31782W        W35380   5.383   7.089   7.889 -0.1715 -0.0242  0.1213
31783W        W35381  15.868  13.103  14.515  0.1786 -0.1250  0.1919
31784W        W35382  14.943   3.764   2.254  0.2990  0.2356 -0.3201
31785W        W35383  16.361  14.890  16.142 -0.0153 -0.1555  0.0459
31786W        W35384   3.602  13.682   0.261 -0.1371 -0.0716 -0.1962
31787W        W35385   2.709   2.553  12.538 -0.0731 -0.3220 -0.1421
31788W        W35386   6.555  13.821   6.471  0.1294 -0.4909  0.1674
31789W        W35387   6.286  14.925   7.064  0.0894 -0.4080  0.1636
31790W        W35388  15.838  10.650  10.986  0.1204  0.2790  0.0213
31791W        W35389  10.194  11.057   2.106  0.0892 -0.4264 -0.2902
31792W        W35390   3.699  16.259  11.432 -0.0266  0.5464 -0.0042
31793W        W35391   1.541   1.833   2.126 -0.1711  0.0887 -0.2396
31794W        W35392   0.580   4.579   9.834  0.0912 -0.0411  0.0440
31795W        W35393   3.946   0.121   6.257  0.0907  0.0225  0.1943
31796W        W35394   4.732  16.321  12.274  0.0668 -0.0829  0.2154
31797W        W35395   6.689   3.630   4.757 -0.2512 -0.2298 -0.0841
31798W        W35396   5.464   0.573   9.635  0.1493 -0.2797 -0.3205
31799W        W35397   9.774  11.904  10.522 -0.2975  0.0944 -0.0442
31800W        W35398  11.475  10.753   2.614  0.1488 -0.0084  0.0104
31801W        W35399  12.904   1.138   4.779  0.0109 -0.0330  0.0869
31802W        W35400  12.408   2.737   3.411  0.1465 -0.2257  0.0258
31803W        W35401   2.295   6.916   6.187  0.1139  0.1857  0.1924
31804W        W35402   1.339  15.121  10.364  0.2099  0.1734  0.0271
31805W        W35403   9.447  13.780   0.704 -0.2339 -0.0300  0.0560
31806W        W35404   8.841   8.112  10.069  0.1768 -0.0710 -0.1292
31807W        W35405   2.090   1.739  14.360 -0.1644  0.0019 -0.1226
31808W        W35406  13.346   7.397   9.234 -0.2102 -0.1807 -0.2153
31809W        W35407   3.575  12.656   3.772  0.1691 -0.4183  0.2455
31810W        W35408   8.015  13.787   5.358  0.2108 -0.1262 -0.2097
31811W        W35409   2.382  11.283   4.299  0.3181 -0.3220  0.0242
31812W        W35410   6.335  14.870  15.458  0.3056 -0.0768  0.1246
31813W        W35411   9.334   7.039  12.564  0.2936  0.1404  0.0246
31814W        W35412   5.534   1.767   3.819 -0.1770  0.0130  0.1165
31815W        W35413   8.263  11.470   1.833  0.1969  0.0977  0.1660
31816W        W35414   6.660   9.002   5.727  0.1407 -0.0074  0.0348
31817W        W35415   9.905  11.463   1.865  0.3554  0.3683 -0.1207
31818W        W35416  10.106   6.658   1.441 -0.0539 -0.0857 -0.1416
31819W        W35417  13.722  10.785   7.550 -0.0988  0.0426  0.2731
31820W        W35418   6.968  10.591  12.859 -0.1786  0.3132 -0.1633
31821W        W35419  14.362  15.538   5.824 -0.0488 -0.1539 -0.1142
31822W        W35420   7.247   7.703  13.861  0.0281  0.2585  0.0128
31823W        W35421   8.013  14.853  12.922  0.1708  0.0919  0.1492
31824W        W35422  15.111  15.934  12.998  0.2903 -0.0123 -0.0387
31825W        W35423   8.479  15.793   0.075  0.0626 -0.1234 -0.0889
31826W        W35424  14.498   6.718  12.753 -0.1341 -0.2230 -0.0357
31827W        W35425   9.554   7.134   2.753  0.2172  0.1873  0.1296
31828W        W35426   6.460   7.675   6.398 -0.0440 -0.2233 -0.0891
31829W        W35427  12.302   7.567   6.919  0.2742 -0.1476  0.0243
31830W        W35428   1.540   8.593  16.118 -0.0884  0.0248 -0.3003
31831W        W35429   7.492  10.660   3.378  0.3343  0.0814 -0.0752
31832W        W35430   8.778   3.375  12.144 -0.0487 -0.1248  0.3265
31833W        W35431   0.436  12.375   0.122  0.1664  0.1747  0.0480
31834W        W35432   5.064   7.377   9.903 -0.2607 -0.0235  0.2387
31835W        W35433  14.651  15.897   7.912  0.1692 -0.0797  0.1552
31836W        W35434   5.343  11.322   7.696  0.1515 -0.4792 -0.2545
31837W        W35435   8.567  14.305   1.684 -0.1654 -0.1607 -0.1210
31838W        W35436   4.243   5.894   4.848 -0.0788  0.0402 -0.1094
31839W        W35437   9.030   4.567   7.717 -0.0968 -0.0693  0.0162
31840W        W35438   0.794  11.963   4.439  0.0442  0.4649 -0.1365
31841W        W35439   5.961  15.815   9.186 -0.0855  0.1434  0.3597
31842W        W35440  11.523  13.304   2.608 -0.0239  0.1085 -0.0140
31843W        W35441   9.791  14.625   1.274  0.1174  0.1262 -0.0366
31844W        W35442  11.934   2.827   5.571 -0.4646 -0.2899  0.1674
31845W        W35443   8.760   1.135   9.565 -0.1061  0.2224 -0.0534
31846W        W35444   0.047  15.230   4.896  0.2923 -0.1204  0.3213
31847W        W35445   1.017   6.748   5.435  0.2082  0.0129 -0.1617
31848W        W35446  15.346  11.335  14.581 -0.2198  0.1389 -0.2297
31849W        W35447   4.479   8.384   4.864  0.2443 -0.2858  0.0998
31850W        W35448   7.722  12.918  10.356 -0.0524  0.0759 -0.1720
31851W        W35449   9.027  13.219   0.380  0.1085 -0.0436 -0.2579
31852W        W35450   4.907   6.789  14.551  0.0760  0.2172  0.3223
31853W        W35451  11.173   5.062   8.910  0.2657  0.4114 -0.0135
31854W        W35452   7.592  11.423   3.190 -0.1087  0.2182 -0.0030
31855W        W35453   9.873   2.585  10.316 -0.0294  0.1331  0.0045
31856W        W35454   6.157   6.988   3.547  0.1167  0.0430 -0.0012
31857W        W35455   9.847  10.062   2.061  0.0281  0.1820 -0.1119
31858W        W35456  10.914   5.668  12.886  0.0596 -0.0130 -0.0816
31859W        W35457   2.131   2.632  13.406  0.0918  0.1350 -0.1224
31860W        W35458   9.438  10.479  14.030  0.0055 -0.2459  0.0276
31861W        W35459   0.184  10.061   0.813  0.3344  0.2734 -0.1891
31862W        W35460   1.744   9.646   8.615 -0.0402 -0.2414 -0.1413
31863W        W35461   2.349   0.423   5.440  0.0878  0.0465 -0.1530
31864W        W35462   6.740  15.925  10.244 -0.1863  0.1643 -0.1954
31865W        W35463   2.232   9.019  11.714 -0.2072  0.3442 -0.3409
31866W        W35464   1.672  14.099   4.679 -0.2501 -0.1293 -0.0065
31867W        W35465   9.699  15.160  11.114 -0.3386  0.2380 -0.1746
31868W        W35466   5.121  10.284   8.779  0.0645 -0.1520 -0.0970
31869W        W35467   1.231  12.573   5.051  0.0254  0.1343 -0.1409
31870W        W35468   2.393   8.662  14.930 -0.4286 -0.0109  0.2093
31871W        W35469  11.058   3.167  13.305  0.0833 -0.0556  0.1530
31872W        W35470   5.724  12.973   0.949 -0.0072 -0.1065  0.2094
31873W        W35471   4.256   6.116   0.240 -0.0494  0.2627 -0.1484
31874W        W35472   4.545  14.839   5.946 -0.1085  0.0999  0.0433
31875W        W35473   3.335  16.352   2.809 -0.1546  0.2981 -0.0896
31876W        W35474  11.089   8.000   8.040  0.0715  0.1675 -0.1512
31877W        W35475  12.317  13.142  10.696  0.0952 -0.1426 -0.0945
31878W        W35476   9.273  10.527   2.528 -0.6422  0.3312 -0.1013
31879W        W35477   0.206   8.773   1.092  0.0313  0.0111  0.1311
31880W        W35478  14.651   0.218  16.099 -0.2362 -0.2453 -0.1030
31881W        W35479   6.831   1.205   4.345 -0.0572  0.1730 -0.0779
31882W        W35480  16.056   8.619   0.997  0.0245 -0.1220  0.0610
31883W        W35481   0.791   9.158   2.585  0.2027  0.0728  0.1321
31884W        W35482   9.669   1.231  13.528 -0.1516 -0.0624 -0.0444
31885W        W35483  15.152   3.170  11.418  0.3906 -0.1713  0.2452
31886W        W35484   5.766  11.372   4.026 -0.0498 -0.1179  0.1565
31887W        W35485   2.994   0.541   6.145 -0.1652 -0.1252 -0.1226
31888W        W35486   7.715   4.801   7.980  0.2138 -0.4049  0.2110
31889W        W35487  15.044   9.697  13.806  0.0264  0.1948 -0.0940
31890W        W35488   9.530   3.862   3.421 -0.1069  0.1605  0.0067
31891W        W35489  15.637  11.212  11.801 -0.1928 -0.3707 -0.0066
31892W        W35490   9.540  11.683   8.546  0.1375 -0.0661 -0.0856
31893W        W35491  10.962   3.301   2.380 -0.1706 -0.5299  0.3015
31894W        W35492   3.835  10.184  14.048 -0.0112 -0.2103 -0.0846
31895W        W35493  15.927   0.619   8.203  0.0913 -0.0660 -0.3042
31896W        W35494   1.506   3.320   8.148 -0.1026  0.2109 -0.0652
31897W        W35495   3.189   5.303   7.501  0.2137  0.1315 -0.0349
31898W        W35496   8.597   9.272  12.613  0.3337  0.1261 -0.0203
31899W        W35497  14.975  12.883  10.744 -0.1879  0.1097 -0.0250
31900W        W35498  10.512   4.998   1.732  0.0144  0.0002  0.1565
31901W        W35499  15.365   9.533  15.021  0.1302  0.0600  0.5386
31902W        W35500   6.603  15.633  13.117  0.2527 -0.1125 -0.1361
31903W        W35501  15.471  12.230   4.017 -0.0528  0.0716  0.0242
31904W        W35502   5.659   5.186  14.279 -0.0123  0.3094 -0.1952
31905W        W35503   0.959   4.308   2.357  0.1766 -0.1068  0.1906
31906W        W35504   2.570   3.956   1.536  0.1808 -0.0753 -0.3217
31907W        W35505  15.204  14.471  11.014  0.2235  0.2282 -0.0514
31908W        W35506  11.191  13.510   7.924 -0.2396 -0.1989 -0.0353
31909W        W35507   8.735   9.216  11.422  0.0181  0.1252  0.1691
31910W        W35508  15.953   7.340   1.123 -0.4726 -0.0433  0.1451
31911W        W35509   1.392   5.069  11.501  0.1772 -0.1172 -0.2865
31912W        W35510   3.706   8.087  12.445 -0.0588  0.0118 -0.2319
31913W        W35511  13.615   3.363   8.258 -0.2780 -0.0006 -0.0559
31914W        W35512   0.977   8.145   7.017 -0.0206  0.2398  0.0997
31915W        W35513   1.718   2.088   6.780  0.4166 -0.2872 -0.0671
31916W        W35514  15.462   3.098   1.954 -0.3530 -0.0685  0.4703
31917W        W35515   3.892   3.684  14.332  0.0184  0.1961  0.0210
31918W        W35516  14.997   3.173  12.775  0.1367  0.2173  0.0403
31919W        W35517   1.194   9.327  14.757 -0.1057 -0.2106  0.0002
31920W        W35518   8.683  15.616  10.891  0.0176 -0.1255 -0.3703
31921W        W35519   8.302   5.185   5.560 -0.0518 -0.2452 -0.2266
31922W        W35520  11.173  15.845  11.090  0.0582  0.0234  0.0124
31923W        W35521  11.422   0.167  15.028 -0.0052 -0.0306  0.3312
31924W        W35522   5.899   9.942   6.527 -0.2269 -0.3122 -0.1640
31925W        W35523   9.073   4.281   0.107 -0.0343 -0.2274 -0.5787
31926W        W35524   0.397   0.261  12.933  0.0400  0.3612 -0.0296
31927W        W35525  14.964   2.501   6.619 -0.2057  0.3992 -0.0810
31928W        W35526   5.888  11.411  10.765 -0.0460  0.0954  0.2990
31929W        W35527  11.663  11.122  16.011 -0.0178  0.0811 -0.3210
31930W        W35528  15.023  13.312   9.056  0.1157  0.0466  0.2153
31931W        W35529   4.270  13.320  10.690 -0.3576 -0.0862  0.2690
31932W        W35530   7.261   1.913   8.006 -0.2140 -0.0136  0.4081
31933W        W35531   8.907  16.045   5.628 -0.2669 -0.1931  0.0624
31934W        W35532  14.572   0.607   6.468  0.1403  0.0040 -0.1103
31935W        W35533  13.732   2.763  11.704  0.0561  0.0777 -0.0039
31936W        W35534   7.145  14.227  13.878  0.0873 -0.1312  0.4911
31937W        W35535   2.051   7.693   2.452 -0.2872  0.0922 -0.2268
31938W        W35536   7.645   7.868   5.999 -0.2332 -0.1217  0.0018
31939W        W35537  11.354   4.523   3.149  0.0559 -0.0982 -0.0284
31940W        W35538   9.217  15.919   4.732  0.1844  0.1838 -0.1994
31941W        W35539   4.226   2.341  12.176  0.0260 -0.0873 -0.1177
31942W        W35540  16.277   3.250   3.860  0.0952 -0.5124 -0.2490
31943W        W35541   4.160   8.681   2.747  0.0480  0.3994  0.0777
31944W        W35542   1.852  16.054   6.139  0.0631 -0.1717 -0.0180
31945W        W35543   8.269   9.532  12.881  0.0989  0.0222  0.0798
31946W        W35544   5.331   8.886   0.112 -0.2144  0.1797  0.2474
31947W        W35545   3.165   0.318  16.101 -0.2708  0.0854  0.1365
31948W        W35546  12.173   7.334   2.706 -0.1586  0.0095  0.0004
31949W        W35547  12.109   2.583   0.784  0.1254  0.0031  0.0973
31950W        W35548  12.770  12.761  15.710  0.1234 -0.0870 -0.2360
31951W        W35549   7.012  14.431  14.360  0.0188 -0.0466  0.1207
31952W        W35550  12.088  16.160  13.866 -0.1111 -0.1240  0.2098
31953W        W35551   6.254  13.947   1.886 -0.1835  0.0069  0.0059
31954W        W35552  10.531  15.278   2.269 -0.2165 -0.1072 -0.3570
31955W        W35553   6.399   1.740   9.895  0.2187  0.0278  0.0442
31956W        W35554   7.619  15.615  15.268 -0.0979 -0.0031 -0.1440
31957W        W35555   8.734  11.341  14.828  0.1097  0.0376 -0.0897
31958W        W35556   5.117  11.410  11.441  0.0599  0.0751 -0.3593
31959W        W35557   0.336   6.728   7.764 -0.0402 -0.3062  0.1058
31960W        W35558   7.947  12.398  11.996 -0.2338  0.1000  0.1202
31961W        W35559  10.744  12.601   0.380 -0.1199 -0.1063 -0.1088
31962W        W35560  15.139   2.593  12.012  0.0115 -0.2802 -0.2610
31963W        W35561   3.817   6.485  11.641  0.0158  0.2710 -0.0828
31964W        W35562   1.602   8.255   1.915 -0.1936 -0.0698  0.1208
31965W        W35563  10.787  14.769  13.952  0.0078 -0.0406 -0.1639
31966W        W35564  11.050   3.673  14.011  0.0810 -0.0523  0.0798
31967W        W35565   8.749   6.442   4.853  0.1265 -0.1549  0.0201
31968W        W35566  16.387  10.121   1.778  0.0922  0.0066 -0.3204
31969W        W35567   8.845   3.196  14.894 -0.4377  0.1959  0.0697
31970W        W35568   7.285  14.773  15.765 -0.1820  0.3454 -0.1583
31971W        W35569  12.367  10.148  15.442  0.0003 -0.2242  0.3447
31972W        W35570  14.636  10.478  14.045  0.1165 -0.0488  0.0702
31973W        W35571  14.541   3.649   5.982  0.0248 -0.3850 -0.1127
31974W        W35572  14.411   3.613   9.595  0.0678 -0.2034 -0.0285
31975W        W35573   2.800  12.657  11.388 -0.0364  0.1121  0.0224
31976W        W35574   3.930   4.973  13.208  0.2078 -0.0850  0.0706
31977W        W35575  13.325   4.169   9.688  0.0630  0.1181  0.1613
31978W        W35576   3.037  10.543   1.144 -0.0678 -0.1052 -0.1330
31979W        W35577   3.815  10.899  14.867  0.2895  0.1953 -0.0435
31980W        W35578   8.292   1.461  10.118  0.3080  0.2862 -0.0172
31981W        W35579   8.405   6.181   5.551  0.1853  0.0093 -0.0596
31982W        W35580  13.180   3.959   3.763 -0.1475  0.4229  0.0757
31983W        W35581   7.327   2.369  13.533  0.4597  0.2134 -0.2786
31984W        W35582   1.859   4.242  12.198  0.1120 -0.0276  0.1269
31985W        W35583  10.492  14.125  12.438 -0.0182 -0.1760 -0.0866
31986W        W35584  15.171  14.670   3.639  0.2200 -0.3757 -0.0249
31987W        W35585  15.013   3.064   4.865 -0.1546  0.1959 -0.0589
31988W        W35586  12.165   6.757  13.019  0.0510 -0.3292  0.2055
31989W        W35587   8.206  10.212  15.344 -0.0803  0.1806  0.1721
31990W        W35588   2.360   0.841   5.151 -0.4646 -0.1048  0.0940
31991W        W35589   8.398  12.098   0.057 -0.2781  0.0157 -0.0868
31992W        W35590  15.765  11.741  10.499 -0.1015  0.3897  0.1933
31993W        W35591  14.897   0.511   4.668  0.4296 -0.2416 -0.0633
31994W        W35592  14.994  13.423  12.925  0.0022 -0.2488 -0.1662
31995W        W35593   9.662   8.077   5.150 -0.1213  0.1035  0.1000
31996W        W35594   1.197   2.822   4.393  0.0338 -0.2177  0.0455
31997W        W35595   9.592  14.305  14.223 -0.2057  0.1229  0.0246
31998W        W35596  13.810   8.643  13.267 -0.1586  0.2311  0.2062
31999W        W35597  14.976  10.652   3.632  0.2230 -0.1421  0.1708
32000W        W35598   5.200   0.533   4.060 -0.2767 -0.0683 -0.2142
32001W        W35599   3.324  11.021   1.461 -0.0769  0.2605 -0.0960
32002W        W35600   7.109  11.572  11.982 -0.0050  0.1870 -0.1338
32003W        W35601   8.108   2.565  14.912  0.3050 -0.0604 -0.3023
32004W        W35602  12.995  15.460   3.470 -0.0038 -0.1663  0.1867
32005W        W35603   3.444  11.688   7.399 -0.1338 -0.3067 -0.2550
32006W        W35604   6.293   9.207   2.148  0.2558 -0.0065 -0.0440
32007W        W35605  13.020  13.149  10.221 -0.0600  0.0991 -0.0344
32008W        W35606   0.064  13.299   0.805  0.4850 -0.2213 -0.1657
32009W        W35607   8.270  10.273   0.231  0.0155  0.0617  0.1552
32010W        W35608   3.278  14.672   5.281  0.0806 -0.4241  0.1582
32011W        W35609   2.571  10.337   4.475 -0.0696  0.0294  0.1517
32012W        W35610   5.689  12.649   4.962  0.0900  0.2734 -0.1101
32013W        W35611   1.125   1.147   6.506 -0.1447  0.0445 -0.1466
32014W        W35612  14.806   1.011  14.669  0.0989  0.4062 -0.3648
32015W        W35613  11.586  12.537   8.990 -0.1123  0.0897  0.0422
32016W        W35614  10.970  15.299   4.335 -0.1801 -0.1443 -0.0842
32017W        W35615  15.826   0.629   2.753  0.0466 -0.2064 -0.0416
32018W        W35616  10.071  16.107  12.820 -0.0081 -0.1345  0.1142
32019W        W35617  12.287  11.602  15.477 -0.1515 -0.0265  0.1396
32020W        W35618  14.892  12.898  15.951 -0.1872 -0.1679  0.0313
32021W        W35619  15.315   1.825   4.324 -0.3402 -0.0353 -0.1194
32022W        W35620   3.335  14.475   3.866 -0.1383 -0.0672  0.4681
32023W        W35621  12.736  14.414   3.760  0.0387  0.1470 -0.0197
32024W        W35622   9.035   6.758   1.080  0.2623  0.3329 -0.1153
32025W        W35623   4.966   9.481  10.093  0.0421  0.1259 -0.2985
32026W        W35624   8.756   0.500   2.145 -0.1724  0.0403 -0.1281
32027W        W35625   8.217  11.003   2.265 -0.0165 -0.0809 -0.3248
32028W        W35626   7.162   7.267  13.566  0.0632 -0.1073 -0.0323
32029W        W35627   2.897  13.141   1.713  0.2664  0.0662 -0.1777
32030W        W35628  12.396   8.957  15.101  0.1582 -0.1377 -0.0991
32031W        W35629   6.170  15.820  11.519 -0.2878 -0.0615 -0.0546
32032W        W35630   7.313  13.144  10.203 -0.0809 -0.2848 -0.0908
32033W        W35631   8.115   4.936  14.760 -0.0455 -0.2223  0.0694
32034W        W35632  15.892   5.880   5.828 -0.0015 -0.0337 -0.2076
32035W        W35633   8.511   0.496  15.323  0.2414 -0.1276 -0.1985
32036W        W35634  10.119  15.532   7.491  0.0819 -0.0944 -0.0648
32037W        W35635  10.421   1.801   7.627 -0.1922 -0.1270  0.0397
32038W        W35636   3.387   0.972   7.719 -0.3111 -0.0420  0.0849
32039W        W35637  13.400  10.159   2.163  0.2344  0.0606 -0.1909
32040W        W35638  15.293   2.760   4.621  0.1899  0.1737 -0.1643
32041W        W35639   9.703   9.817  14.988  0.1157  0.0673  0.0318
32042W        W35640   1.639   9.452  10.051  0.0613 -0.0688  0.0062
32043W        W35641   7.378  14.983   2.089 -0.1720 -0.0234 -0.0182
32044W        W35642   8.399   4.674   6.787 -0.0715  0.3302 -0.0524
32045W        W35643  14.099   2.853   6.283  0.1324  0.4105  0.0115
32046W        W35644  12.141  13.917  10.032  0.2658  0.1577  0.1917
32047W        W35645  15.712  11.880  12.427 -0.1495  0.1361 -0.1189
32048W        W35646   5.118  11.561   4.090  0.1160 -0.0879  0.3309
32049W        W35647   2.389   1.784  10.411  0.0203  0.1176  0.3085
32050W        W35648   4.311  15.740   4.103  0.0103 -0.0627 -0.2252
32051W        W35649   2.755   1.000  14.534  0.2471 -0.0867  0.0296
32052W        W35650   1.177   8.843   6.296  0.1232 -0.1539  0.0462
32053W        W35651  10.536  11.510  11.964 -0.0789  0.0358  0.1882
32054W        W35652   7.289   9.819  10.949  0.3521  0.0130 -0.1009
32055W        W35653   5.999   6.257   4.143  0.2606 -0.0377 -0.1922
32056W        W35654   6.172   2.432  12.469  0.4978  0.0617 -0.4556
32057W        W35655   3.876   3.623   6.377  0.0274  0.1061  0.1757
32058W        W35656   7.228  12.173   2.563  0.0859  0.0450 -0.2794
32059W        W35657  10.415   0.214   5.756  0.1791  0.2167 -0.0607
32060W        W35658   7.142  13.507  14.685 -0.1806 -0.0502 -0.2505
32061W        W35659   1.435  14.816   4.102 -0.0570  0.0250 -0.1254
32062W        W35660  13.198   8.028   1.131 -0.5191 -0.0888  0.1401
32063W        W35661   9.507   1.480   7.548 -0.1976  0.0649  0.0908
32064W        W35662  11.095   5.330   7.661  0.3535 -0.3802  0.2305
32065W        W35663  10.795  15.641  10.406 -0.2487 -0.0501 -0.2462
32066W        W35664  13.128  14.679   2.067 -0.2020 -0.0572 -0.1420
32067W        W35665  11.858  10.130  13.263 -0.0635  0.3418 -0.0087
32068W        W35666  11.345   9.743   4.917 -0.3146  0.0221 -0.1193
32069W        W35667  15.207   0.781  14.451 -0.1988  0.0484  0.0055
32070W        W35668   6.770   1.966   3.505  0.1193  0.2609  0.0612
32071W        W35669  10.644   6.623  13.218 -0.3114 -0.4764 -0.0618
32072W        W35670  11.557   3.322  11.929  0.1577  0.1039  0.0701
32073W        W35671   0.125   2.783   3.653 -0.1501  0.0113  0.1960
32074W        W35672   2.292  12.896   3.920 -0.0734 -0.3935 -0.0194
32075W        W35673   7.923  15.259  13.265  0.0784 -0.0828  0.0349
32076W        W35674   6.257   1.565   2.703  0.0548 -0.0235  0.0974
32077W        W35675  16.092  15.908  10.132 -0.0886  0.3583 -0.0844
32078W        W35676  13.030   0.361   8.786  0.2100 -0.0331  0.0999
32079W        W35677  15.924   5.347   4.579  0.1534  0.0783  0.2099
32080W        W35678   6.189  11.871   7.964  0.0857  0.3023 -0.1748
32081W        W35679   3.231   5.611  14.516  0.1231  0.0797 -0.4303
32082W        W35680  15.999  12.064  15.876  0.1225 -0.0784  0.0498
32083W        W35681   6.833  10.064   6.315  0.1795  0.1951 -0.1130
32084W        W35682   6.809   2.821  16.348 -0.3519 -0.0271 -0.2798
32085W        W35683  14.734   0.860   7.272  0.0653  0.1933  0.0743
32086W        W35684   9.749   4.820   0.987 -0.3339  0.0888 -0.0227
32087W        W35685   8.098   8.019  12.202  0.2489 -0.0699  0.2132
32088W        W35686  13.944  12.675  10.872 -0.0266  0.2616 -0.0879
32089W        W35687   4.733   9.952   7.136  0.0246 -0.1124  0.1450
32090W        W35688   3.346  13.211  16.392 -0.1183 -0.3789 -0.0592
32091W        W35689  15.352  15.254  11.934  0.2080  0.0683  0.0967
32092W        W35690  10.602  14.747   2.071 -0.1242  0.2465  0.0257
32093W        W35691   3.553   1.059   3.431  0.2946 -0.0795 -0.0703
32094W        W35692   4.928   5.794   1.514  0.1514 -0.0728  0.4218
32095W        W35693  10.255  16.301   3.091 -0.2167  0.1404  0.0024
32096W        W35694   8.416   7.668   0.208  0.1370  0.1205 -0.0624
32097W        W35695   7.609   1.134   2.077  0.1009 -0.1032 -0.0946
32098W        W35696  13.540   2.769   0.289 -0.0057  0.1061 -0.2150
32099W        W35697   2.329  13.078   8.003 -0.2026  0.2673  0.0875
32100W        W35698  11.570   3.821   8.520  0.0973  0.0683 -0.0729
32101W        W35699   8.733   9.771  12.858 -0.0480  0.0997 -0.1117
32102W        W35700   8.988  13.676   0.653  0.3808 -0.1034  0.2069
32103W        W35701  11.155   8.799   5.023 -0.0139  0.1010  0.2020
32104W        W35702  10.201   4.545   4.273  0.0844 -0.0078 -0.0963
32105W        W35703   8.950  16.189   7.580 -0.0341 -0.0000 -0.1458
32106W        W35704   9.496   4.633   3.352 -0.3302 -0.1151 -0.0129
32107W        W35705   4.861  12.040  14.531 -0.2115 -0.0593 -0.0045
32108W        W35706   1.430  15.447   4.902  0.1532 -0.0009 -0.2593
32109W        W35707   3.204   5.229   4.006  0.0253  0.1971  0.2074
32110W        W35708   3.990   6.880  16.291  0.1510 -0.0369 -0.4107
32111W        W35709   8.272   3.944   6.822  0.2596 -0.1491  0.1584
32112W        W35710  10.913   1.008   5.076  0.0509 -0.1225  0.2489
32113W        W35711   3.034   6.832   4.062 -0.0713 -0.1305  0.2042
32114W        W35712   1.293   8.268   4.870  0.1222 -0.1271 -0.0265
32115W        W35713  15.361  14.310   6.559  0.0535 -0.3430  0.0139
32116W        W35714  15.708   7.255  11.092 -0.1238  0.2501  0.0526
32117W        W35715   6.110  11.859   4.031  0.2428  0.0233  0.0321
32118W        W35716  12.293  15.892   9.569  0.3065 -0.0968 -0.0012
32119W        W35717   7.719  11.671   5.342 -0.1121 -0.2710  0.0916
32120W        W35718   4.361  12.380  15.282  0.1492 -0.3986  0.3588
32121W        W35719   0.586   8.978   0.855  0.2989  0.0640  0.1037
32122W        W35720  11.916   6.204   5.379  0.0829 -0.3253  0.0086
32123W        W35721   3.445  12.307   7.052 -0.1928 -0.0498  0.0850
32124W        W35722  14.495   9.536   4.343  0.1810 -0.2203  0.0696
32125W        W35723   0.377   1.482   2.488 -0.0670  0.3853  0.0327
32126W        W35724  13.547  12.585   7.080 -0.1458 -0.0011  0.1241
32127W        W35725  12.664   8.184   3.567  0.2032 -0.0104  0.0079
32128W        W35726  12.233   1.950  15.122  0.0380 -0.1521 -0.0410
32129W        W35727   2.077   4.127   6.708 -0.2685 -0.1759 -0.0040
32130W        W35728  10.338   5.062   0.236 -0.2133  0.0514  0.1795
32131W        W35729  10.143   3.355   1.700  0.2150  0.1695 -0.1179
32132W        W35730  12.081   5.165  10.154 -0.1186  0.1979 -0.2818
32133W        W35731   7.361   4.851  11.437  0.1629  0.0745 -0.2847
32134W        W35732   7.761   4.773   3.144 -0.1000  0.1501  0.0483
32135W        W35733   7.006  10.254   5.456 -0.0547  0.0078 -0.0370
32136W        W35734   7.958   4.834   9.839 -0.0411 -0.1924  0.0536
32137W        W35735  11.878  14.178  11.745 -0.3257  0.0188  0.4885
32138W        W35736   0.597   8.727   3.383  0.1660 -0.1168  0.1884
32139W        W35737   6.217  12.148   7.465 -0.0042  0.0151 -0.4255
32140W        W35738   9.690   0.427   9.749  0.0044 -0.0680 -0.0765
32141W        W35739   2.625   3.503  12.813 -0.3486  0.0378 -0.0043
32142W        W35740   3.849   4.063  15.687  0.0129  0.1629  0.0246
32143W        W35741  10.852  13.504  11.195  0.2682  0.1143 -0.0622
32144W        W35742   4.596   6.057  11.088  0.2616 -0.1729  0.2330
32145W        W35743   1.430  15.597   8.836 -0.2138 -0.0497  0.0320
32146W        W35744   7.724  14.905   2.406  0.0090  0.0296  0.1699
32147W        W35745  10.030   0.041   6.424  0.0141  0.2241 -0.0114
32148W        W35746  10.591   9.209   3.708  0.2026  0.0838 -0.0577
32149W        W35747   6.115   1.848   4.769 -0.0167  0.1147 -0.2058
32150W        W35748  10.623   9.650   4.823  0.0166 -0.1200  0.3995
32151W        W35749   9.767  13.836  14.336 -0.1849  0.1305  0.0780
32152W        W35750   4.178   6.054  13.083 -0.1180  0.0704  0.0348
32153W        W35751  12.067  15.824   4.543 -0.0975 -0.1168  0.0588
32154W        W35752   6.775   6.224  14.537  0.0661 -0.3815 -0.2574
32155W        W35753   0.103  15.183  13.401 -0.2388  0.1736  0.0917
32156W        W35754  12.042  15.202   8.378  0.1279 -0.0065 -0.4298
32157W        W35755  12.503   0.012  14.262  0.3746  0.2893 -0.0381
32158W        W35756   7.019  11.776   5.916  0.1204 -0.0854 -0.0833
32159W        W35757   0.571   1.104  11.816  0.2385 -0.1697  0.1924
32160W        W35758  13.984   6.842  14.455 -0.0665  0.1190  0.3521
32161W        W35759   2.077   0.680   7.342 -0.1242  0.0325 -0.2851
32162W        W35760  15.242   5.244   0.303  0.4524 -0.0584 -0.0911
32163W        W35761   8.702   8.216  15.087 -0.0322  0.1484 -0.2808
32164W        W35762   8.328  12.824   1.533 -0.1875  0.1062  0.5182
32165W        W35763  14.040  16.153   9.596  0.2170  0.1255 -0.0423
32166W        W35764  14.819  10.336  12.779  0.1787 -0.1818 -0.0117
32167W        W35765  12.503   6.456   7.432 -0.1898 -0.0970  0.0105
32168W        W35766   8.293   9.808  14.449  0.0992 -0.0614  0.3474
32169W        W35767  11.979  13.224   2.793 -0.0960  0.0052  0.1489
32170W        W35768   2.181  12.037   2.064 -0.2317 -0.2926 -0.0650
32171W        W35769   1.806  13.158   5.784 -0.0338  0.1409  0.0942
32172W        W35770   3.778  15.654  13.410 -0.0081  0.0778  0.4048
32173W        W35771   1.862   5.134   4.525 -0.0650  0.1074  0.1205
32174W        W35772   0.543  12.595  12.699  0.0246  0.0208 -0.0883
32175W        W35773   9.994  14.803   5.797 -0.2676 -0.0093  0.1799
32176W        W35774  12.285   1.087  13.380  0.0893 -0.3606 -0.1218
32177W        W35775   6.004  12.357   4.086  0.2446  0.2593  0.2325
32178W        W35776   7.600  14.482   8.907 -0.2029  0.0136  0.0515
32179W        W35777   4.291  13.399  13.481  0.0269 -0.0744 -0.1506
32180W        W35778  11.989   4.961  15.000 -0.0216  0.3772  0.0282
32181W        W35779   5.215   4.543  11.118  0.1340 -0.0633  0.0993
32182W        W35780  15.330  13.008   5.795  0.3356  0.1247 -0.3017
32183W        W35781   4.233  14.060   1.401 -0.0179  0.1392  0.1532
32184W        W35782  11.602  15.681   1.727 -0.0670  0.0626  0.1514
32185W        W35783   7.011   9.485   0.262  0.1802  0.2380 -0.0087
32186W        W35784   4.439   6.180   8.915  0.3255 -0.0588  0.2466
32187W        W35785   6.780  11.723   8.165 -0.0477 -0.1476 -0.2039
32188W        W35786   9.131   2.774   8.585  0.0553  0.1944  0.4723
32189W        W35787   8.211  10.726   9.314 -0.5095  0.1179 -0.0021
32190W        W35788  14.556  10.371   3.241  0.0704  0.1824 -0.0185
32191W        W35789  12.771  13.955   6.457  0.0652  0.1453 -0.0925
32192W        W35790  11.571  14.847  14.832 -0.0807 -0.2204 -0.3319
32193W        W35791   4.602   5.299   8.294 -0.2770 -0.0688  0.3518
32194W        W35792   7.061  14.446   9.852 -0.1049 -0.2277  0.0966
32195W        W35793   6.223   2.032   3.300 -0.1532  0.0818 -0.0615
32196W        W35794   0.546   4.376   4.149  0.0875 -0.2725  0.0593
32197W        W35795  14.428   9.077   5.548  0.0174 -0.2538 -0.1643
32198W        W35796  11.191   6.563  10.331 -0.2154  0.0512  0.0994
32199W        W35797  13.263   6.039  10.036 -0.1660 -0.1218 -0.0466
32200W        W35798   0.910   8.005   3.007  0.1363 -0.0789 -0.0848
32201W        W35799  12.461  14.105  16.368 -0.1179 -0.0129 -0.0080
32202W        W35800  14.881  14.923  14.206 -0.3686  0.2081 -0.0893
32203W        W35801   0.047   1.409   7.668 -0.0567 -0.1361  0.2938
32204W        W35802  11.761   9.139   6.192 -0.2805  0.0198  0.1766
32205W        W35803  14.136   2.398   3.356 -0.3390  0.0486 -0.0538
32206W        W35804   4.509   6.338   3.492 -0.1516 -0.2303  0.1201
32207W        W35805   7.377   9.338   2.078 -0.0959  0.0781 -0.3058
32208W        W35806  13.063  13.565   9.939 -0.1638 -0.0311  0.0692
32209W        W35807   9.304   0.594   4.045 -0.2760 -0.5181  0.1080
32210W        W35808  13.820   0.769   7.497  0.0069  0.1236  0.2011
32211W        W35809   8.883   6.469   0.669  0.2755 -0.6492 -0.1079
32212W        W35810  14.104   9.054   6.062  0.1188 -0.4334  0.0980
32213W        W35811  15.199   6.360  13.976 -0.0478  0.2501  0.2315
32214W        W35812   5.177   3.492  15.682 -0.3811 -0.0922  0.1108
32215W        W35813   4.928   9.671   3.481  0.3379 -0.0086  0.1812
32216W        W35814  12.251  12.136   3.866 -0.0078 -0.2666  0.2060
32217W        W35815  12.229  12.856   3.136 -0.2626  0.3645  0.3863
32218W        W35816   6.689   9.467  10.298 -0.0525 -0.0522 -0.0309
32219W        W35817   3.267   6.980   9.116  0.1226 -0.0605  0.0073
32220W        W35818   7.812  13.881   0.060  0.0088 -0.1660 -0.2943
32221W        W35819   9.866   4.991  11.727  0.0740  0.0384 -0.1004
32222W        W35820  16.024   2.936  16.236 -0.0953 -0.3630  0.2950
32223W        W35821   6.300  12.440  14.923  0.0812  0.1607 -0.2099
32224W        W35822   2.463   6.351  11.307 -0.1943  0.1207  0.0555
32225W        W35823  10.079   7.869   0.718  0.0749 -0.0102 -0.0139
32226W        W35824  15.371  12.475   2.705 -0.0463  0.2037 -0.3184
32227W        W35825  10.120   5.388   2.759 -0.1080 -0.0895 -0.0836
32228W        W35826  11.109   2.785   3.724 -0.1621 -0.0220 -0.0194
32229W        W35827   1.095   8.623   7.345  0.0754  0.0680  0.0170
32230W        W35828   4.004  14.956   0.812 -0.0653 -0.0644  0.1183
32231W        W35829   5.784   6.062   8.937 -0.0405 -0.1155 -0.0871
32232W        W35830   2.826   4.698  11.702  0.0617 -0.0492 -0.4041
32233W        W35831   3.177  14.504   8.776  0.1932 -0.2530  0.0025
32234W        W35832   7.164   9.985   8.930  0.1502  0.0797 -0.1284
32235W        W35833   2.193  13.148  10.463  0.3761  0.1986  0.0868
32236W        W35834   2.916  14.702   4.053  0.0624 -0.0797  0.1605
32237W        W35835   8.606   8.672   5.791  0.1866 -0.0038  0.1022
32238W        W35836   2.197  11.612   5.548  0.0160 -0.0066 -0.1513
32239W        W35837  16.082  10.028  13.774 -0.0064  0.2083 -0.0888
32240W        W35838   2.143  11.810  10.539  0.1753 -0.2696 -0.1255
32241W        W35839   9.931   3.230   7.540 -0.1533 -0.0702  0.0222
32242W        W35840   6.558   9.726   2.782 -0.0369  0.2313  0.3037
32243W        W35841   2.838  10.028   1.209  0.2808  0.1756 -0.1219
32244W        W35842   0.382   8.931   0.382 -0.0192 -0.1560  0.2636
32245W        W35843  13.320   5.909   9.538  0.1949 -0.3475 -0.0239
32246W        W35844   0.332  15.415   5.906 -0.2315 -0.1027  0.1740
32247W        W35845   1.758   4.541   7.003  0.0774  0.2976  0.0522
32248W        W35846  15.891  10.188   1.775  0.0269  0.0544  0.1502
32249W        W35847  15.492   5.132   2.375  0.1432  0.2907  0.1048
32250W        W35848  14.903  10.691   6.556 -0.3153 -0.0017  0.0227
32251W        W35849   6.509  11.460   7.073  0.0768  0.1027  0.2775
32252W        W35850   9.762   8.678   9.259  0.2330  0.2588 -0.1401
32253W        W35851  15.249  16.262  11.264  0.1349 -0.0440  0.1908
32254W        W35852   6.445   5.050   4.726 -0.2140 -0.1701  0.0352
32255W        W35853   6.580   7.908   1.966 -0.0240 -0.2388 -0.0940
32256W        W35854   3.442   1.506  13.797 -0.0880  0.0270  0.1036
32257W        W35855  14.426   8.772  10.601 -0.0528 -0.1639  0.1919
32258W        W35856   9.053   3.182  15.366  0.2834  0.1927 -0.1809
32259W        W35857   0.972  13.877  15.979 -0.0029  0.0630 -0.0412
32260W        W35858  16.210   3.291  13.988 -0.2133  0.2221 -0.0508
32261W        W35859   9.147   9.861  16.071  0.0661  0.1290 -0.0844
32262W        W35860   1.783  12.017  13.228 -0.0318  0.0382  0.5872
32263W        W35861  14.255   3.017   6.821  0.1385 -0.0025  0.2656
32264W        W35862  15.120   5.128  15.334 -0.0931  0.3267 -0.1570
32265W        W35863  12.193   7.132   3.729  0.2878  0.1903 -0.0392
32266W        W35864  15.895  15.207  13.602 -0.0556 -0.0998 -0.3946
32267W        W35865   3.639  14.358   8.737 -0.1152  0.2542 -0.2725
32268W        W35866   2.380  13.969   3.572 -0.1596  0.1779  0.2277
32269W        W35867   6.925   4.235   6.541 -0.0068  0.1594 -0.0380
32270W        W35868  11.907  14.117   1.279 -0.2540 -0.3418 -0.1026
32271W        W35869   6.345   4.265   1.048 -0.1702 -0.0641 -0.0644
32272W        W35870  10.999   3.510   3.204  0.0418  0.0325  0.1862
32273W        W35871   9.077   3.795   5.892 -0.3555 -0.0967  0.0795
32274W        W35872  15.029   3.485   5.782  0.2643  0.0122  0.1095
32275W        W35873   6.983   9.890  10.163 -0.1765  0.2502 -0.0458
32276W        W35874   5.863  14.245   2.874 -0.0087  0.0515 -0.1273
32277W        W35875  10.036   6.801   6.263 -0.1818 -0.0217 -0.0323
32278W        W35876  13.595   7.772   6.522  0.0328  0.1822  0.1232
32279W        W35877  15.487   2.249   8.772 -0.0211  0.0535  0.0160
32280W        W35878   1.486   2.655  15.311 -0.2670 -0.0616 -0.0447
32281W        W35879  13.818   7.876   5.276 -0.1199  0.0626  0.1169
32282W        W35880  14.743  13.125  11.624 -0.0625  0.1946 -0.0216
32283W        W35881  12.193  10.899   1.582 -0.2093 -0.1302 -0.1792
32284W        W35882  10.489  14.394  13.584 -0.0460  0.3720 -0.3076
32285W        W35883   7.774  10.698  12.917  0.1475  0.0999  0.2005
32286W        W35884  16.321   3.252   1.374  0.3644 -0.1400  0.2580
32287W        W35885   1.417  14.670   5.058  0.0709  0.1510 -0.0232
32288W        W35886   2.961   4.298   8.758  0.1963  0.2072  0.6302
32289W        W35887   5.585   9.168  10.824  0.0081  0.0009 -0.1649
32290W        W35888   3.036  15.546  11.204  0.1232 -0.1555 -0.1338
32291W        W35889   4.554   2.219   7.397  0.1594  0.1685 -0.0603
32292W        W35890   5.038   0.674   2.527  0.0811  0.1242  0.0378
32293W        W35891  14.281  11.467  11.477  0.1774  0.1109 -0.0623
32294W        W35892  11.131   5.331  12.158  0.0734 -0.0467 -0.1019
32295W        W35893  16.151   5.773   7.488 -0.1173 -0.1898 -0.0196
32296W        W35894   5.376   0.796  15.510  0.0962  0.0351 -0.1146
32297W        W35895   4.545   6.503   7.958 -0.0380 -0.1047  0.2181
32298W        W35896   7.275  10.878  11.017 -0.1560  0.1792 -0.0772
32299W        W35897   7.740  14.770  14.535  0.2492  0.1216 -0.0396
32300W        W35898   0.063   2.212   4.839 -0.0641  0.2001 -0.0905
32301W        W35899   0.719   9.046  14.784 -0.1146  0.0674  0.0756
32302W        W35900  14.923   0.070   4.477 -0.1223 -0.1989  0.0473
32303W        W35901   2.944   2.310   7.795  0.0363 -0.2640  0.2195
32304W        W35902  10.930  15.249   6.726 -0.2055 -0.1861  0.0285
32305W        W35903   7.617  12.958   4.896  0.0599  0.3221 -0.1117
32306W        W35904   6.730   6.999   3.735  0.2657 -0.0652 -0.0823
32307W        W35905   4.704   6.151   4.610 -0.2114 -0.0077  0.1578
32308W        W35906  14.292  11.645   2.403  0.0521 -0.2835  0.0108
32309W        W35907   5.162   6.038  15.075 -0.1690 -0.0123 -0.0092
32310W        W35908  12.459   0.038  14.743  0.1117 -0.0290 -0.2000
32311W        W35909  12.250   6.683  14.979  0.0269  0.2472  0.0565
32312W        W35910   4.165  14.064   4.838 -0.0833  0.3462  0.0072
32313W        W35911   1.116  13.734   8.524 -0.0887 -0.2722  0.0528
32314W        W35912  11.448   1.589   5.880 -0.3492 -0.0383  0.3895
32315W        W35913   6.198  13.750   8.554 -0.3035 -0.2089  0.0402
32316W        W35914  14.792   7.593   7.557  0.0172 -0.0850  0.2426
32317W        W35915   7.310  10.198   6.381 -0.0708  0.2193  0.1108
32318W        W35916  13.204  12.652  10.304 -0.0999 -0.2157  0.1936
32319W        W35917  14.535   9.402   7.001 -0.0979  0.2370 -0.0293
32320W        W35918   7.411   0.952   6.955 -0.2940 -0.2045  0.2045
32321W        W35919  13.618   3.674   0.183  0.1516  0.0657 -0.3440
32322W        W35920   1.775  10.676   8.987 -0.0935  0.0376 -0.0276
32323W        W35921  14.224   5.494   6.783 -0.2173  0.1016  0.1713
32324W        W35922   7.394   0.461   8.080 -0.0307 -0.0153  0.2018
32325W        W35923   6.404  16.150   9.238  0.0613  0.0459 -0.2233
32326W        W35924  13.677   6.982   6.703 -0.0182 -0.1044 -0.0221
32327W        W35925   1.576   2.000   4.862 -0.1404  0.0401  0.1871
32328W        W35926  11.134   1.346   1.067 -0.0347  0.0156 -0.2831
32329W        W35927  11.491   6.969   2.238  0.0787  0.3360 -0.0305
32330W        W35928  12.534   7.776   9.831  0.1306  0.0420  0.1974
32331W        W35929   5.595   2.148   4.133 -0.1122  0.1885 -0.1817
32332W        W35930  13.271  14.644   5.834 -0.1806 -0.0159  0.1156
32333W        W35931  12.269   0.768  12.265 -0.0140  0.1155  0.1011
32334W        W35932   1.769  15.829  14.940  0.1738 -0.3095  0.0915
32335W        W35933   8.283  12.648  10.469  0.1071 -0.0485 -0.1058
32336W        W35934   2.767   6.717   8.275 -0.0841  0.0291 -0.0468
32337W        W35935   3.611   0.786   1.419 -0.0107  0.0086  0.2408
32338W        W35936   7.002   2.376   3.437 -0.0237 -0.2498 -0.2426
32339W        W35937   4.671  14.361   6.147  0.3660 -0.1428 -0.2322
32340W        W35938   7.572   9.626  13.704  0.0616  0.3250  0.0905
32341W        W35939   6.362  15.796  12.286  0.3743 -0.2835  0.0167
32342W        W35940  15.860   4.403  14.153  0.0019 -0.0436 -0.2923
32343W        W35941   5.204   1.566  10.283  0.2936 -0.1150 -0.1301
32344W        W35942  14.051  12.199   9.524 -0.1159  0.2277  0.0913
32345W        W35943  11.724   7.402   6.314  0.0469  0.3915 -0.0719
32346W        W35944  14.644  13.009  10.327  0.1481  0.1266  0.4719
32347W        W35945   1.959  14.760   4.039  0.0084 -0.1660  0.0765
32348W        W35946   6.041   1.797  16.015  0.0937  0.0080  0.0073
32349W        W35947  11.023   3.621  15.489  0.2633 -0.0388 -0.0422
32350W        W35948   3.268  15.594   5.100  0.1335  0.0386  0.0928
32351W        W35949  14.360  15.785   2.412 -0.1940 -0.1522 -0.3219
32352W        W35950  15.007  14.636   8.122 -0.3602  0.2234  0.1078
32353W        W35951   4.791   1.140  12.821 -0.0040  0.2347  0.1250
32354W        W35952   5.475   9.866   8.963 -0.3484 -0.0556 -0.1877
32355W        W35953  14.821   8.133  10.624 -0.4989 -0.0666  0.2749
32356W        W35954   6.181  13.614   9.464  0.0860 -0.2066 -0.0512
32357W        W35955  11.560  13.481   6.302 -0.0443 -0.0749  0.0030
32358W        W35956  13.005   1.693   6.715 -0.0533  0.0246 -0.1334
32359W        W35957   5.336   4.252  11.546 -0.2890  0.1924  0.1388
32360W        W35958  11.149   6.815   0.497  0.3314  0.0468 -0.1064
32361W        W35959   4.946  12.676   7.033  0.0677  0.2865 -0.2397
32362W        W35960   9.845   8.336   3.055  0.0357  0.1972 -0.1907
32363W        W35961   3.786   1.569   7.334  0.0206  0.3819  0.0896
32364W        W35962  11.394   1.263  13.149 -0.0005  0.2491 -0.2458
32365W        W35963   1.197   6.368  13.306  0.1763  0.1173  0.0339
32366W        W35964  12.413   7.762   9.322  0.0711 -0.2596  0.1308
32367W        W35965  10.912   7.482   7.870  0.0406 -0.1440  0.0578
32368W        W35966   9.033  13.185  15.348 -0.0270  0.2605 -0.0824
32369W        W35967   5.264  12.482  11.229  0.2851 -0.0741  0.2046
32370W        W35968  14.003  11.924  10.824  0.0508  0.1869 -0.0035
32371W        W35969   1.553   2.594   8.919 -0.1080  0.0481 -0.1340
32372W        W35970   8.563  13.997   0.914  0.4147  0.0438  0.0097
32373W        W35971   3.563  12.420   4.783  0.2618  0.0005 -0.0259
32374W        W35972   8.240   9.232  13.354 -0.1015  0.1999  0.0549
32375W        W35973  12.824  10.874   4.722 -0.0070  0.0105  0.3176
32376W        W35974  14.301   2.121   7.862 -0.0334 -0.1492 -0.1385
32377W        W35975  15.840   2.933   3.878 -0.0107 -0.1275  0.0599
32378W        W35976  16.132  12.250   8.117  0.2039  0.0099  0.3903
32379W        W35977  13.559   2.134   1.578  0.0524  0.0886  0.0426
32380W        W35978   7.235  11.257  12.435 -0.0139  0.0289  0.0621
32381W        W35979   1.879   8.815   3.336  0.0146 -0.2452  0.0183
32382W        W35980  13.177   1.370   5.877 -0.0582 -0.0157 -0.4798
32383W        W35981  16.369   7.063  14.731 -0.0348 -0.0678 -0.0798
32384W        W35982   5.228  14.209  14.476  0.4273 -0.3644 -0.1430
32385W        W35983   9.932  11.574   0.277  0.0297 -0.1853 -0.1460
32386W        W35984   5.579  10.152  10.378 -0.0000 -0.2807 -0.2057
32387W        W35985  13.886   1.842  13.228  0.0376 -0.1966 -0.0489
32388W        W35986  13.828   1.183   3.378 -0.0461  0.1683  0.1542
32389W        W35987   2.817   9.084   0.294  0.0208 -0.0004 -0.0877
32390W        W35988   4.360  11.445   2.159 -0.1990  0.0637  0.1182
32391W        W35989   0.370   6.464   4.567 -0.3242 -0.1871  0.1842
32392W        W35990   8.188  14.705   0.978  0.0640  0.2389 -0.0308
32393W        W35991   7.978  11.327   7.993  0.1991 -0.3241  0.2836
32394W        W35992   4.177   8.908   1.992  0.0332 -0.0731 -0.0130
32395W        W35993  15.809   0.472  10.191 -0.0943 -0.1030  0.0804
32396W        W35994   9.098  11.691  10.972  0.0692  0.0432 -0.0005
32397W        W35995   7.095   9.296  10.872 -0.0487 -0.0569  0.0648
32398W        W35996  12.842   0.612   7.157  0.1747  0.0022  0.1012
32399W        W35997   7.731   2.177  14.769  0.2719 -0.0494  0.0194
32400W        W35998   8.466  11.047  14.501  0.0424  0.0698  0.0788
32401W        W35999   4.243  14.465   8.565  0.0261 -0.1539  0.2365
32402W        W36000   1.013  12.730  13.848  0.2759 -0.1194 -0.0130
32403W        W36001  10.111   6.703  10.823 -0.2361  0.1034 -0.1660
32404W        W36002  10.530   1.762   0.592  0.5176 -0.1046 -0.0932
32405W        W36003  14.586   2.537   3.209  0.3432  0.5290  0.4185
32406W        W36004  15.426   3.280  11.835 -0.0980 -0.2074 -0.0032
32407W        W36005   6.197  15.984   1.582 -0.3145 -0.0019 -0.1596
32408W        W36006   1.531  15.126   2.957  0.2227 -0.1592  0.2440
32409W        W36007  14.445   8.889   4.336 -0.1025 -0.0552  0.0207
32410W        W36008  13.781   0.894  10.337 -0.1709 -0.1757  0.1389
32411W        W36009   6.219   7.210   7.602 -0.0187  0.0934  0.1732
32412W        W36010  10.545  14.504  15.357  0.1855  0.2739  0.0211
32413W        W36011  14.984  10.116   7.036  0.0001 -0.1084 -0.0318
32414W        W36012   3.933   4.865  16.130  0.1809 -0.1552 -0.0741
32415W        W36013   1.779  11.350   7.680  0.0997 -0.1042 -0.0137
32416W        W36014   8.282  10.220   0.767 -0.1378 -0.2116 -0.0772
32417W        W36015   4.914   3.689  10.754 -0.2031  0.2136 -0.2158
32418W        W36016  15.317  15.968   8.666 -0.4075  0.3863  0.3005
32419W        W36017  13.118   6.930  12.732 -0.2569 -0.0421 -0.0084
32420W        W36018   7.974   7.099   6.527  0.3531  0.0295 -0.2018
32421W        W36019  13.917   4.905  10.808 -0.0008 -0.0170 -0.2395
32422W        W36020  16.138  13.196   2.160  0.3185  0.1874  0.0717
32423W        W36021  14.779  12.169   9.447  0.0514 -0.0485 -0.2683
32424W        W36022   8.312  13.349   6.622  0.1142  0.2204  0.0565
32425W        W36023   3.036   6.177  10.498 -0.2994  0.1363  0.2044
32426W        W36024  15.184  13.259   3.057  0.0039  0.2746  0.1374
32427W        W36025  14.687  15.460   4.621  0.0130 -0.0605  0.2147
32428W        W36026   7.128  13.949  13.209  0.0617  0.2273 -0.2929
32429W        W36027   9.196   5.667  13.859  0.0192 -0.2090  0.0845
32430W        W36028  10.565  11.991   1.005 -0.2019 -0.0223  0.1866
32431W        W36029   2.459   9.157   7.035  0.0697 -0.0864  0.2416
32432W        W36030  11.646   9.545   7.849  0.2047 -0.1176 -0.2200
32433W        W36031   2.627   7.953   4.662  0.0699 -0.4020  0.0418
32434W        W36032  14.874   2.602  16.345  0.2324  0.0327 -0.0748
32435W        W36033   4.020   3.354  16.356  0.1066 -0.3782 -0.0236
32436W        W36034   8.602  11.090   1.921 -0.2141  0.1054  0.1388
32437W        W36035   1.749  16.184  10.950  0.1092  0.1658  0.0033
32438W        W36036   4.538   3.655   3.072  0.1006 -0.0617 -0.1498
32439W        W36037   9.674  12.808  11.131  0.0339  0.0420  0.0557
32440W        W36038   4.167  12.185   8.297  0.0311 -0.1229 -0.0810
32441W        W36039  12.896  13.251  15.738 -0.1149  0.1621  0.1517
32442W        W36040  12.461   2.257  12.357  0.2287  0.0225 -0.2857
32443W        W36041   8.266   3.964  11.957 -0.0695  0.2541  0.0481
32444W        W36042   8.452  12.213  13.486 -0.0383 -0.4361  0.2089
32445W        W36043  15.623   1.018  16.383  0.2307 -0.0124  0.1080
32446W        W36044  12.651  11.251  14.668 -0.0033  0.1013 -0.2792
32447W        W36045  12.768   1.948  10.023 -0.2344  0.4746 -0.0101
32448W        W36046   1.751  15.108   6.949 -0.2463 -0.2957 -0.0494
32449W        W36047  14.469   3.715   2.265  0.0329  0.3608 -0.0186
32450W        W36048  13.488   5.660   0.373  0.1049 -0.0001  0.1995
32451W        W36049   5.150   7.081   0.908  0.2926  0.0509 -0.1790
32452W        W36050   1.138   2.163  13.642  0.1926 -0.1385 -0.0039
32453W        W36051   4.594   9.473   2.453  0.0072  0.1751  0.0218
32454W        W36052  14.961  10.848   5.190 -0.1047 -0.1960 -0.0478
32455W        W36053   3.496   4.012  10.255  0.0197  0.0730 -0.0162
32456W        W36054   8.911   8.307  13.453 -0.1719 -0.3599 -0.0328
32457W        W36055  15.842  12.759   5.813  0.4353 -0.1257 -0.2489
32458W        W36056  16.313  15.410   7.228  0.1093 -0.0579 -0.1102
32459W        W36057   7.344  10.492   7.331 -0.0461  0.0099 -0.3577
32460W        W36058  16.019   1.780   2.092  0.0085 -0.5709  0.0009
32461W        W36059  11.829   1.191   0.327 -0.1330 -0.2406  0.1180
32462W        W36060   8.715   7.321  13.167 -0.5218 -0.2199 -0.2230
32463W        W36061  12.213  13.409   5.629  0.0534  0.1794  0.0272
32464W        W36062   1.527   7.516   6.615 -0.1022 -0.0628  0.1053
32465W        W36063  13.532  11.165   4.027  0.0556  0.0181 -0.0395
32466W        W36064   0.147  13.543  15.460 -0.2043  0.1719  0.0753
32467W        W36065   7.273  13.210  15.618  0.3821 -0.2250 -0.0905
32468W        W36066  15.136   6.036  15.591 -0.3966  0.1030  0.0624
32469W        W36067   2.576   1.847  15.165 -0.0200 -0.0461  0.1295
32470W        W36068   2.064  13.155  12.994  0.3477 -0.0202 -0.1114
32471W        W36069  14.475   0.841   9.564  0.0911 -0.2514  0.0056
32472W        W36070   7.282  12.862  12.456 -0.0149 -0.2844  0.1488
32473W        W36071   5.575   0.571   8.540  0.1245 -0.0589 -0.1613
32474W        W36072  10.899   5.139   5.892  0.3058  0.0115 -0.0909
32475W        W36073  11.811  14.948   5.315  0.0680  0.3179  0.0165
32476W        W36074   2.582   8.530   8.999  0.0906  0.0733  0.0382
32477W        W36075   8.382   9.272   1.028 -0.4352 -0.0528  0.0102
32478W        W36076   6.379   5.419   4.359  0.0639  0.1971  0.0983
32479W        W36077   6.188   0.164  13.165 -0.5653 -0.1254 -0.2675
32480W        W36078  15.891   9.247   7.650 -0.1257  0.0970  0.0776
32481W        W36079  15.111  11.027  13.636 -0.0856  0.0437 -0.1147
32482W        W36080  11.409   6.973   1.332 -0.2581 -0.1642  0.1256
32483W        W36081   4.677   8.291  10.831 -0.0040 -0.2987 -0.2600
32484W        W36082   1.683   9.373  15.000  0.1906  0.0072  0.0494
32485W        W36083  11.031   2.764  13.772 -0.1045  0.1567 -0.0483
32486W        W36084   3.364   8.112   3.724 -0.0406 -0.0430 -0.1764
32487W        W36085  13.447   7.377  12.780 -0.0297 -0.0416 -0.0475
32488W        W36086   8.450  15.126   5.492 -0.2643  0.1638 -0.0372
32489W        W36087   7.140   6.277   7.970 -0.3655  0.1119  0.1004
32490W        W36088  14.951   9.105  12.085  0.0740 -0.3450 -0.0078
32491W        W36089   1.859  14.982  14.795  0.0120  0.1990 -0.1046
32492W        W36090   3.199  14.107   9.768  0.2332 -0.2322 -0.1065
32493W        W36091   3.832   0.900  12.240  0.1731  0.1085  0.1070
32494W        W36092  13.349  13.885   0.285 -0.2483 -0.1136  0.1308
32495W        W36093   5.284  12.756   3.117 -0.0315  0.1238  0.3076
32496W        W36094   8.470   3.186   5.793 -0.0494 -0.2875  0.0044
32497W        W36095  10.881  16.337   5.978  0.0470  0.1496  0.1786
32498W        W36096   4.533  14.268   0.374  0.3143 -0.1342 -0.2466
32499W        W36097   2.474   9.293   7.844  0.1741 -0.3048  0.1512
32500W        W36098   7.342  12.304  13.655 -0.0008 -0.5481 -0.1884
32501W        W36099   0.634   5.371   8.384  0.4532  0.0390 -0.2827
32502W        W36100   5.175   4.851  12.379 -0.1028  0.2943  0.0691
32503W        W36101   5.815  10.026   9.400  0.0880 -0.2534  0.0600
32504W        W36102  14.707   2.730  10.681 -0.0120 -0.0743  0.6084
32505W        W36103   4.116  12.602  14.814  0.2384 -0.0827 -0.0345
32506W        W36104   5.443   1.404   6.057  0.1890 -0.0309 -0.0535
32507W        W36105   0.869   2.269   0.046  0.3814 -0.0926  0.2266
32508W        W36106   1.133  13.191  13.984 -0.1359 -0.0834 -0.0714
32509W        W36107   3.573   1.490  15.276 -0.0386 -0.2949 -0.0001
32510W        W36108   4.969  11.323   2.077 -0.2817  0.3915  0.0789
32511W        W36109   8.720  11.053   3.814 -0.0362 -0.0220 -0.0039
32512W        W36110  15.602  14.972   3.482 -0.1146  0.1243 -0.1147
32513W        W36111   1.268  16.071   1.421  0.0355 -0.1113 -0.1624
32514W        W36112  14.390   1.866   1.538  0.3945  0.0492  0.4961
32515W        W36113  13.697  15.212   5.342  0.1576  0.3596  0.0208
32516W        W36114   9.141  11.889   0.211 -0.0222 -0.0092 -0.2470
32517W        W36115   4.992   7.459   7.929 -0.3036 -0.1537 -0.0445
32518W        W36116   7.948  12.004  10.212  0.1437  0.3275  0.2209
32519W        W36117  13.232  16.238   9.383 -0.1645 -0.2081 -0.2825
32520W        W36118   8.718  12.255   8.879 -0.1345 -0.0435  0.3262
32521W        W36119  11.325  14.825   4.125 -0.0573  0.2324 -0.0022
32522W        W36120   5.482   2.361   5.142  0.1035  0.0397 -0.1378
32523W        W36121  11.268  10.160   1.996  0.0201 -0.0115  0.0534
32524W        W36122   4.063   5.899  12.275  0.1106  0.3341  0.0998
32525W        W36123   8.812  12.063   1.763  0.2594 -0.0238 -0.0872
32526W        W36124  12.907  13.333  13.939 -0.2475 -0.1902 -0.2647
32527W        W36125   2.881  13.887   6.872 -0.2217  0.1140 -0.0330
32528W        W36126  16.141  11.290   6.205  0.1267  0.0019  0.3085
32529W        W36127  12.166   9.463   3.839  0.0787  0.1531  0.1806
32530W        W36128  14.395   9.597  12.901 -0.0149 -0.0127  0.0214
32531W        W36129   2.420  12.676   1.079  0.0309  0.1478 -0.1601
32532W        W36130   8.388   0.779  15.856 -0.1082  0.1801 -0.0692
32533W        W36131  12.112  10.104   5.175  0.0883  0.0887 -0.1724
32534W        W36132   8.716   5.373  11.174  0.1894 -0.1007  0.0359
32535W        W36133  10.440  10.128   1.893  0.1089 -0.1956  0.0166
32536W        W36134   0.504  15.984   5.516 -0.1251 -0.1008 -0.0207
32537W        W36135   2.106  11.905  11.501  0.3645  0.1511 -0.1781
32538W        W36136   6.231  14.492  13.255 -0.0507 -0.2150  0.2651
32539W        W36137  13.728  15.680   2.231 -0.0036  0.0418 -0.0410
32540W        W36138   2.875  16.226   1.180  0.1195 -0.2800 -0.1312
32541W        W36139   5.996  11.252   1.453 -0.0000 -0.3622  0.0328
32542W        W36140   1.774   4.999  10.959  0.1129  0.2251  0.0012
32543W        W36141  13.985   4.603   3.420 -0.0530 -0.1541  0.2902
32544W        W36142   8.717   6.035   9.318  0.1231  0.6449 -0.3899
32545W        W36143  14.437   4.756  13.234 -0.3025  0.0589  0.1873
32546W        W36144  14.648  14.499  15.493  0.3929 -0.1777 -0.1717
32547W        W36145   5.163   9.955   3.177 -0.0162  0.0687  0.2108
32548W        W36146   9.372   5.748   7.229 -0.1527 -0.1590 -0.1549
32549W        W36147   7.044   6.361   3.695 -0.0446  0.2333 -0.3156
32550W        W36148  10.435   6.310  10.098 -0.1386  0.0171 -0.0266
32551W        W36149   2.653  10.120   5.324 -0.1087  0.3535  0.4413
32552W        W36150  11.811  10.916   4.324 -0.1589 -0.0640  0.0751
32553W        W36151   3.982   4.570  11.109  0.0081 -0.0739  0.0629
32554W        W36152  15.884  15.417   9.250 -0.2567 -0.0884 -0.3045
32555W        W36153   2.517  15.676   7.250 -0.1767  0.0033  0.2612
32556W        W36154  10.695   2.164  15.381  0.0832  0.0821 -0.0099
32557W        W36155   3.896  13.066   1.500  0.0474 -0.0066 -0.1225
32558W        W36156   1.677  13.410   1.269 -0.0577 -0.0016  0.1831
32559W        W36157  13.458  10.213   8.867 -0.0997  0.0881 -0.0402
32560W        W36158   0.978  14.155   9.277  0.2956 -0.1258 -0.0193
32561W        W36159  13.867   9.798  14.633 -0.2561 -0.2877  0.2007
32562W        W36160   8.726   2.000  10.450  0.0394 -0.2936 -0.2899
32563W        W36161   5.822  11.987   9.014 -0.2831 -0.2996  0.1124
32564W        W36162   5.292  15.835  13.808  0.1997  0.1326 -0.0353
32565W        W36163   7.908  10.906  15.836 -0.0588 -0.2488 -0.2361
32566W        W36164   2.571   4.795   7.274  0.0020  0.1689 -0.3509
32567W        W36165  16.324  11.675   7.387 -0.3508 -0.0465 -0.1403
32568W        W36166   0.609  14.401  12.223  0.0110 -0.2194 -0.0054
32569W        W36167   4.621  14.241   8.209 -0.1837  0.3065 -0.2408
32570W        W36168   5.969   6.230   8.541 -0.2607 -0.1000  0.0850
32571W        W36169  13.036  13.672   0.634 -0.0738  0.0757 -0.3103
32572W        W36170   3.634  13.433   1.730  0.0325  0.0452 -0.1163
32573W        W36171   9.662  11.112  12.049  0.2328  0.0474 -0.2345
32574W        W36172  16.196  14.464   6.099 -0.3840 -0.1861 -0.4138
32575W        W36173  13.369  15.194  14.412 -0.1032 -0.0843  0.0013
32576W        W36174   7.556   7.159  12.783 -0.3308  0.0280 -0.1923
32577W        W36175  11.889  14.518   3.960  0.1282 -0.1808 -0.1357
32578W        W36176  12.820  14.729  13.566 -0.0856  0.1843 -0.1478
32579W        W36177  13.124   9.660   3.039  0.3364 -0.0821 -0.0588
32580W        W36178   6.299  11.157  15.345  0.0801 -0.2892  0.1141
32581W        W36179   3.471   5.596  15.825  0.1419  0.2438  0.0151
32582W        W36180   0.450   9.008   4.122  0.0221 -0.0890  0.0635
32583W        W36181   8.689   5.300   4.377 -0.1732 -0.1119 -0.1335
32584W        W36182  11.317   9.953   9.353  0.0483  0.0169  0.1342
32585W        W36183   4.506   7.896   2.700  0.0021  0.6190  0.0514
32586W        W36184   8.566  16.232   7.274 -0.1674 -0.2810  0.0384
32587W        W36185   7.437  10.691   6.496  0.3162 -0.0720  0.3174
32588W        W36186  12.528   8.929  10.964 -0.0846  0.0725  0.2479
32589W        W36187   4.046   7.284   8.032 -0.1869  0.2377 -0.1614
32590W        W36188  11.397   7.894   1.699 -0.0632  0.1520  0.1021
32591W        W36189  15.890   4.305   7.997  0.3488  0.2134  0.2210
32592W        W36190   7.660  10.844  11.281 -0.1915 -0.0062 -0.0070
32593W        W36191   6.683   3.507   7.722 -0.0873  0.0593 -0.2721
32594W        W36192   3.429   1.952   2.883  0.2956  0.0700  0.1480
32595W        W36193  14.543   5.453   8.305  0.1817 -0.1937  0.2761
32596W        W36194  10.013  13.697  12.682  0.0962  0.0983 -0.1005
32597W        W36195  14.192  11.426  15.305  0.1101  0.2337  0.2402
32598W        W36196   4.484  10.439   3.771 -0.0487  0.0223  0.0372
32599W        W36197  11.967   7.559  12.047 -0.1335  0.0479  0.0503
32600W        W36198  11.681   2.824   3.807  0.0177 -0.0814  0.2013
32601W        W36199  12.702  13.617  16.099  0.1023  0.0880  0.3098
32602W        W36200   0.614  12.955  16.323 -0.3186 -0.3420  0.0149
32603W        W36201  10.608   3.549  14.280  0.1358 -0.2062 -0.2282
32604W        W36202   6.566   8.669  15.384 -0.1938  0.0953 -0.0121
32605W        W36203   8.215  14.781  11.309  0.0947 -0.3646  0.0146
32606W        W36204  11.511  11.722   0.519 -0.0551  0.0119  0.0439
32607W        W36205   3.753  14.956  10.932 -0.0075 -0.0764 -0.0458
32608W        W36206   1.980   0.420   2.558 -0.1308 -0.1012  0.1509
32609W        W36207   3.698   2.316   7.147 -0.0979 -0.2579 -0.0826
32610W        W36208  11.127  14.982   9.582 -0.0703 -0.0510 -0.0698
32611W        W36209  12.676  13.868   3.309  0.0409  0.1586 -0.1363
32612W        W36210   5.593  11.981  14.272  0.1799 -0.0169 -0.3147
32613W        W36211  15.204  12.086   6.685 -0.3847  0.0344  0.2088
32614W        W36212   8.131   0.717  16.284 -0.0669 -0.4583 -0.2228
32615W        W36213   3.198   1.583  13.363 -0.1300 -0.0265 -0.0372
32616W        W36214   3.963   3.093  11.371 -0.2469 -0.1500 -0.2781
32617W        W36215   0.813   1.521  11.876  0.2194  0.3264 -0.2789
32618W        W36216  10.920  10.474   8.724 -0.1126 -0.0759 -0.1203
32619W        W36217  10.547   0.718  14.033 -0.1930 -0.0134  0.1379
32620W        W36218   3.360   0.013  15.332 -0.0482 -0.0331  0.0616
32621W        W36219  15.358  13.332   9.883  0.2585  0.1700  0.1970
32622W        W36220  10.472  10.311  10.062 -0.3053  0.2727  0.1030
32623W        W36221  14.333   2.892   5.372 -0.0615  0.1384  0.2571
32624W        W36222   1.004  13.971   2.450 -0.2153 -0.2125  0.1018
32625W        W36223  12.290   0.553  12.757  0.1009  0.0925  0.1856
32626W        W36224   7.895  11.670  16.365  0.0201 -0.3401  0.0821
32627W        W36225  11.880  10.101   3.238  0.0712  0.0757 -0.2168
32628W        W36226   2.702  13.672   7.344  0.3438  0.1459 -0.0161
32629W        W36227   5.973  12.202  13.956 -0.0964  0.4226  0.1012
32630W        W36228  11.022  10.968   5.386 -0.2508 -0.0502 -0.1742
32631W        W36229  10.365   9.635   2.002 -0.0635 -0.1448 -0.0017
32632W        W36230   2.367   8.022   1.313 -0.1218  0.1477 -0.0479
32633W        W36231   5.537   2.885   9.353 -0.0677  0.1470 -0.1311
32634W        W36232  13.527  12.461   1.306 -0.3064  0.2080  0.1654
32635W        W36233   3.227   4.230   7.013  0.0612  0.0306 -0.0723
32636W        W36234   7.749  14.518   0.836 -0.0376  0.0210  0.3830
32637W        W36235   1.988   5.271   5.124  0.3647  0.3790  0.1313
32638W        W36236   2.983   1.411   9.080 -0.2435  0.1145  0.0110
32639W        W36237   9.654  15.505   0.352 -0.0013  0.0805  0.0137
32640W        W36238   5.445   2.363   8.685 -0.0829 -0.2957  0.1013
32641W        W36239  10.809  15.238   7.991 -0.1584  0.2644  0.1419
32642W        W36240   6.753   5.563   4.063 -0.0580  0.3545 -0.0101
32643W        W36241   2.842   2.757   6.572  0.1330  0.1083 -0.0040
32644W        W36242   3.442   1.111   5.490  0.1352 -0.0465  0.1925
32645W        W36243  13.627  16.318  11.749  0.1732  0.1360 -0.0319
32646W        W36244   1.062   5.541  15.467 -0.0598  0.0354 -0.0044
32647W        W36245   3.249  14.559   2.966  0.0766 -0.0868  0.2101
32648W        W36246  13.748  15.480   3.592 -0.1438  0.0802 -0.0714
32649W        W36247   8.642  10.691   4.770 -0.2682 -0.0716  0.3907
32650W        W36248   2.612   2.397  10.103 -0.2852  0.2153 -0.0060
32651W        W36249   9.691  13.152  10.605  0.3164  0.4799  0.3959
32652W        W36250  15.010   9.913  16.228  0.0174  0.2230  0.1034
32653W        W36251  11.079  11.526  14.506 -0.1358  0.0382  0.3024
32654W        W36252   0.502  14.355   8.870 -0.0144 -0.0154  0.3260
32655W        W36253  12.975  10.620   2.849 -0.0019  0.0173  0.1559
32656W        W36254  11.136  13.490   4.989  0.1750  0.2281  0.3229
32657W        W36255  12.819  14.188   5.752 -0.0135 -0.2790  0.2191
32658W        W36256   1.914   2.563   9.421 -0.1014 -0.0806 -0.3301
32659W        W36257  16.296  12.388   1.452 -0.3115 -0.0340  0.0501
32660W        W36258   4.373   4.235   8.580  0.2637  0.2231  0.0819
32661W        W36259   8.533   1.067  14.374 -0.0831 -0.3095  0.1077
32662W        W36260   7.519  11.415  10.059 -0.3333 -0.0985 -0.0603
32663W        W36261  12.570   5.500   5.180  0.1781 -0.2131  0.1784
32664W        W36262   6.906  11.248   8.045  0.2122 -0.0276  0.2260
32665W        W36263   3.555  12.799   2.464 -0.1444  0.4185 -0.0063
32666W        W36264  12.887   0.173  10.986  0.2502 -0.0436 -0.0873
32667W        W36265  13.194   7.049   8.916  0.3233  0.2295 -0.1006
32668W        W36266  16.298   8.507  10.635  0.0964 -0.1307  0.0200
32669W        W36267  10.358  13.411  16.048  0.0074 -0.0497  0.0067
32670W        W36268   6.739   1.930  12.789 -0.1899 -0.0080 -0.2159
32671W        W36269   7.737  11.000   7.555  0.0331  0.0427 -0.3036
32672W        W36270   4.872  11.454   6.852  0.1312 -0.2451 -0.2094
32673W        W36271  13.850   4.466  13.016  0.0165  0.1893  0.0329
32674W        W36272   1.675   9.950   5.850  0.1482 -0.1983 -0.0781
32675W        W36273   6.188   6.152   5.952 -0.0684 -0.0442 -0.1897
32676W        W36274  14.624   1.684   6.092 -0.5084 -0.0118  0.1405
32677W        W36275   3.664  15.122   0.381  0.1932 -0.2615  0.1347
32678W        W36276  15.930  13.975   5.048 -0.0651 -0.1350 -0.0205
32679W        W36277  13.545   3.454  10.867 -0.0911  0.0237  0.3442
32680W        W36278   8.678  11.739   8.815 -0.2349  0.2473 -0.1836
32681W        W36279   8.993   2.738  16.259  0.1628 -0.0235 -0.0612
32682W        W36280  15.612  16.332   0.714  0.0746  0.0039 -0.0811
32683W        W36281   4.686  12.781   1.659  0.0649 -0.1036 -0.2028
32684W        W36282   9.544   4.207   0.471  0.0897  0.2324  0.0017
32685W        W36283   1.543   3.976  15.971 -0.1123  0.0065 -0.0544
32686W        W36284   8.450   1.970   0.233 -0.1158 -0.0903 -0.0020
32687W        W36285  14.781   1.694   1.167 -0.2250 -0.1260 -0.2261
32688W        W36286   2.952   7.767   0.094 -0.1875 -0.1361 -0.0714
32689W        W36287   5.760   1.145   4.658  0.0060  0.1176  0.1783
32690W        W36288   5.632   8.374  11.679 -0.0904 -0.4676  0.1498
32691W        W36289   4.465  15.445   7.997 -0.1528 -0.2840  0.1747
32692W        W36290   2.491   3.182  13.177  0.1898  0.1705 -0.0049
32693W        W36291   7.223  12.203   3.942  0.1233 -0.3085 -0.0878
32694W        W36292   1.998  14.982   7.464 -0.0886  0.0062  0.1066
32695W        W36293   8.606   4.880  12.181  0.4716 -0.0305  0.1982
32696W        W36294  14.510   2.065   5.029 -0.0552  0.0508  0.1567
32697W        W36295   5.843  13.083   2.544 -0.2596 -0.2308 -0.1371
32698W        W36296   3.991   3.831   0.793 -0.2207  0.1030 -0.0306
32699W        W36297  10.752  12.569   9.368  0.0531 -0.0966 -0.0672
32700W        W36298  12.035   4.326   0.301  0.1077  0.2047  0.0378
32701W        W36299  13.998   8.471   1.476  0.2169  0.3341  0.1642
32702W        W36300   9.060  10.591  12.805  0.0533 -0.1808 -0.0437
32703W        W36301   5.345  15.196   8.532  0.0500  0.1364 -0.4777
32704W        W36302   8.755   4.094   3.247  0.2432 -0.1062  0.0538
32705W        W36303  15.865  14.934   1.521  0.0409 -0.0507  0.0647
32706W        W36304   6.253  16.154  13.542 -0.1049  0.1807 -0.3958
32707W        W36305   5.575   0.379   5.823  0.1020  0.0855  0.2639
32708W        W36306   4.953   4.723   9.577 -0.1225  0.2090  0.5619
32709W        W36307   7.262  11.639   0.739  0.0862  0.4439 -0.1775
32710W        W36308   6.592   8.251   9.714  0.1724  0.4299  0.1521
32711W        W36309   1.042  13.162   8.937  0.4384 -0.0324  0.2282
32712W        W36310   8.346   8.890   7.490 -0.1534  0.0778  0.0119
32713W        W36311   9.213   5.114   1.747 -0.4342  0.1484 -0.0717
32714W        W36312   5.191   0.951   8.319 -0.0257 -0.1941  0.0820
32715W        W36313   3.696   2.745  15.799  0.1996  0.0369  0.0779
32716W        W36314   2.308   5.516   9.993  0.0369 -0.1924  0.2031
32717W        W36315  12.884   5.106   7.726 -0.2861 -0.1185 -0.1153
32718W        W36316  12.184  10.609   4.373 -0.0136  0.0970 -0.1506
32719W        W36317   8.768   6.112   5.233 -0.0868 -0.3491 -0.0212
32720W        W36318   2.902  10.247   9.828  0.0259  0.2877 -0.1739
32721W        W36319  12.058  12.917  13.846  0.0659  0.1158  0.0354
32722W        W36320  13.497  13.014   6.869  0.3661  0.1340  0.1990
32723W        W36321   4.401  10.068  11.005 -0.0497 -0.2221  0.1116
32724W        W36322  11.222   2.653   9.438  0.0755 -0.0420 -0.1972
32725W        W36323   9.571   9.265  13.817  0.0454  0.2565 -0.2551
32726W        W36324   2.703  14.439  11.623  0.0366  0.1722  0.0270
32727W        W36325  15.829   2.794   9.615  0.1909 -0.2087 -0.2298
32728W        W36326   6.402   1.568  10.363  0.0213  0.1204  0.0457
32729W        W36327  13.886   6.452   4.208  0.1611 -0.2965 -0.0117
32730W        W36328   8.169  16.320   6.421 -0.2034  0.0868  0.2163
32731W        W36329   9.336  13.777  15.383 -0.3295 -0.2010  0.1203
32732W        W36330   3.521   7.628   0.782  0.1775 -0.2849 -0.2444
32733W        W36331   2.897   0.666   5.259  0.0602 -0.0030  0.0425
32734W        W36332  10.588  15.863  12.843  0.2113 -0.1536  0.1356
32735W        W36333  10.084  15.062   2.788 -0.0124 -0.2153 -0.2681
32736W        W36334   9.985   9.822   6.286 -0.1617 -0.1115 -0.2157
32737W        W36335   8.062   0.413   4.588 -0.1814 -0.0243 -0.1526
32738W        W36336  14.163   1.147   0.106  0.0226  0.2200  0.2891
32739W        W36337  12.222  10.193  13.987 -0.0885 -0.2505 -0.0153
32740W        W36338   0.834  15.271   1.827  0.1072  0.2134  0.0155
32741W        W36339  14.537  15.843   5.432 -0.0585  0.1560  0.2042
32742W        W36340   2.454  16.366   3.292 -0.1263  0.2101 -0.1235
32743W        W36341  11.057  10.629  14.511  0.0841 -0.0879 -0.1010
32744W        W36342  11.136   0.914   8.340 -0.0499  0.0206 -0.1607
32745W        W36343   3.971  11.932   3.525 -0.1427  0.1091 -0.2422
32746W        W36344  10.227   1.894  14.002  0.3043  0.1736 -0.0406
32747W        W36345   5.147   2.658   8.163 -0.0379 -0.0833 -0.2400
32748W        W36346  13.248   9.822  10.355  0.2782 -0.0753  0.2524
32749W        W36347  12.268  10.904   5.840 -0.0575 -0.1401 -0.0849
32750W        W36348   9.014  12.347   1.055 -0.0220  0.0536  0.0095
32751W        W36349   0.391  15.567   7.362 -0.0893  0.4214  0.1456
32752W        W36350   5.608   9.666   3.938  0.0819 -0.2760  0.0952
32753W        W36351   7.658  15.000  10.581  0.1371  0.3793 -0.1490
32754W        W36352   6.218   4.044   8.232  0.1415  0.2177  0.1137
32755W        W36353   8.302   2.801  12.901  0.1204 -0.2729  0.1318
32756W        W36354  11.448   8.070   2.950 -0.1794  0.1687  0.1255
32757W        W36355   2.923   7.478   7.345  0.0909 -0.1522 -0.2618
32758W        W36356   2.767   1.999   1.247 -0.1101  0.0832  0.1393
32759W        W36357   1.818   1.908  15.245 -0.1970  0.2898 -0.1824
32760W        W36358  14.501   0.613  14.413  0.2382 -0.0479  0.1966
32761W        W36359  14.431   1.216   3.493  0.1384 -0.0802 -0.1206
32762W        W36360  15.756   8.042  14.055 -0.4120 -0.2626 -0.0535
32763W        W36361   5.107   4.610  14.843 -0.2745 -0.0038  0.2716
32764W        W36362  10.877   9.656  14.423  0.2364  0.2309 -0.1251
32765W        W36363   1.092   8.998   4.142 -0.0088 -0.1129  0.0971
32766W        W36364  10.755   5.534   7.200  0.0742  0.0400 -0.2836
32767W        W36365   7.436  12.620  11.626  0.0099 -0.0973  0.0733
32768W        W36366   1.615   7.022   1.834  0.1237  0.1052  0.1060
32769W        W36367   7.720   5.722   7.075 -0.1771 -0.0242 -0.0620
32770W        W36368   5.575   8.342   5.372 -0.0209 -0.0343 -0.4143
32771W        W36369   5.005  13.382  12.286  0.4657 -0.1522 -0.1916
32772W        W36370  14.354  14.305  15.901 -0.4044  0.1217  0.0534
32773W        W36371   1.899   4.157   2.771  0.0771 -0.0411 -0.0680
32774W        W36372   9.239   4.336   1.461 -0.2638 -0.1679 -0.2898
32775W        W36373   8.711   1.341  14.843 -0.2342  0.0409 -0.0839
32776W        W36374   3.252   7.220   0.908  0.1063 -0.0187 -0.3139
32777W        W36375  13.335  10.743   7.157 -0.2240 -0.0071  0.1507
32778W        W36376   9.099   7.284  15.913  0.0535 -0.0589  0.1191
32779W        W36377   0.831  13.600   2.693 -0.2938  0.2984 -0.0067
32780W        W36378   4.514   3.908  12.271 -0.1216  0.0473 -0.2376
32781W        W36379  12.275   5.340   9.349  0.0545  0.1892 -0.1821
32782W        W36380   1.637   1.418   3.353 -0.2464  0.2808 -0.2602
32783W        W36381   5.612  10.968   7.411 -0.0346  0.2833 -0.1476
32784W        W36382   1.844   8.937  12.668  0.0090 -0.1143 -0.0324
32785W        W36383  15.676  16.284   6.613 -0.0390  0.2278  0.2234
32786W        W36384   3.274   7.973   1.528 -0.1123 -0.3122 -0.1412
32787W        W36385   2.312   0.173   7.420 -0.3269  0.1653 -0.1147
32788W        W36386  12.938   4.773  11.619  0.0135  0.0378 -0.0595
32789W        W36387   7.890   8.716  15.228  0.1872 -0.2238  0.0112
32790W        W36388  11.424   3.323   8.685  0.1702 -0.3980 -0.0327
32791W        W36389   9.149   9.694  12.572  0.1698 -0.0916  0.1657
32792W        W36390   2.999   7.606  14.063 -0.2883 -0.0073  0.1441
32793W        W36391   5.149  12.484  11.726 -0.1703  0.3370  0.0388
32794W        W36392   2.451   3.197   1.151  0.2642  0.0468  0.0439
32795W        W36393   1.483   1.997   1.555  0.1110 -0.2267  0.0209
32796W        W36394   5.162  13.190  13.687 -0.0143 -0.1874 -0.1036
32797W        W36395   8.522   0.564   3.301  0.1475 -0.0036  0.2979
32798W        W36396   9.193   6.753  11.402 -0.0541  0.2137 -0.0933
32799W        W36397  15.066  10.214  10.311  0.0380  0.1666  0.3065
32800W        W36398   6.272   2.290   9.246  0.1395 -0.1607 -0.1312
32801W        W36399  15.611   9.336   3.467  0.2276  0.4169  0.2517
32802W        W36400   1.392   0.867  10.823  0.0060 -0.6712  0.1662
32803W        W36401   0.378   1.090   7.447 -0.0987 -0.4027 -0.1793
32804W        W36402   5.485   7.563  11.244  0.0859 -0.2079 -0.0652
32805W        W36403   4.822   0.245  14.767  0.0431  0.2115 -0.2228
32806W        W36404  15.765   8.685   4.659  0.0880  0.1753 -0.2327
32807W        W36405   8.187   9.461   4.179  0.0478 -0.4543  0.0343
32808W        W36406  15.421   9.107   2.206  0.3582  0.3941 -0.1051
32809W        W36407  16.226   9.484  13.095 -0.1203  0.2053 -0.0172
32810W        W36408   6.215   4.544   9.304 -0.0711 -0.1810  0.0799
32811W        W36409  13.849   4.331   1.443 -0.1081  0.1332  0.2156
32812W        W36410  15.431  14.370  14.924 -0.1390  0.0333  0.2193
32813W        W36411   8.859   2.033  15.173  0.2330 -0.0932  0.2502
32814W        W36412   0.063   7.809  13.418  0.1286 -0.1795 -0.4645
32815W        W36413   9.714   3.032   5.058  0.1784  0.0285  0.0021
32816W        W36414   3.794   9.155   8.995 -0.0894  0.3842  0.0490
32817W        W36415   5.883  16.385  13.739 -0.0549 -0.1582  0.1732
32818W        W36416   8.464   6.687   9.985 -0.0329  0.1124  0.0799
32819W        W36417   2.890   8.702  12.599 -0.0780 -0.0330  0.1138
32820W        W36418   9.111   4.397  11.315  0.2698 -0.1223  0.3735
32821W        W36419   0.398   4.529   6.025 -0.2476 -0.3983 -0.2110
32822W        W36420  11.723   2.349   0.973 -0.0374  0.0886  0.0533
32823W        W36421   3.412  12.077   9.882 -0.0602 -0.1015 -0.3775
32824W        W36422   2.031   7.945  10.734  0.3860  0.0496  0.0911
32825W        W36423  14.152   1.529   5.958 -0.0257 -0.2938 -0.0726
32826W        W36424   1.784  13.415  10.545  0.1787  0.2238  0.2529
32827W        W36425  12.706   2.281  15.910 -0.2726 -0.1226 -0.1308
32828W        W36426   9.839   5.544   7.095  0.1916 -0.0920  0.0321
32829W        W36427   2.652   0.837   3.063  0.0825  0.1051  0.0800
32830W        W36428   2.554  14.436  14.356  0.1915 -0.1082  0.3930
32831W        W36429   5.915  11.632   3.573 -0.4003  0.0959  0.4182
32832W        W36430  11.235   6.619   7.859  0.1549  0.3469 -0.0662
32833W        W36431  14.950   7.540   0.908  0.2462  0.0039  0.1137
32834W        W36432   2.123  16.259   5.255  0.1701 -0.0560  0.0149
32835W        W36433  16.120   9.385  16.086  0.0957  0.0948  0.3067
32836W        W36434   5.391  11.776  10.348 -0.0038 -0.1474  0.0848
32837W        W36435   2.731   9.091   6.201  0.1043  0.2967  0.2237
32838W        W36436  11.465  12.802  15.611 -0.1796  0.0292 -0.0362
32839W        W36437   1.362   4.720   5.253 -0.0040 -0.0724 -0.3963
32840W        W36438   6.810   7.628  14.163  0.0488  0.0069 -0.0055
32841W        W36439   0.987  11.223  12.492  0.0120 -0.2397 -0.0486
32842W        W36440  11.744  11.786   7.888  0.0383 -0.0360  0.2759
32843W        W36441  12.682  12.195  13.520 -0.2471 -0.1861  0.0862
32844W        W36442  16.287   3.775   5.536 -0.1123 -0.1362 -0.0617
32845W        W36443   2.118  15.216   1.520  0.0801 -0.0449  0.0200
32846W        W36444  15.339   1.585  13.991 -0.0685 -0.2536 -0.0821
32847W        W36445   2.980  14.392  13.663  0.1883  0.1823  0.0271
32848W        W36446   1.012   2.157   5.197 -0.4916  0.0817  0.0592
32849W        W36447   9.556  11.676   4.275 -0.1551 -0.2762  0.0265
32850W        W36448  12.056   9.493   9.785  0.2931 -0.2162  0.2662
32851W        W36449   6.133   3.088   6.013  0.0688  0.3098  0.0653
32852W        W36450   3.009  16.067   4.144  0.0544  0.2322 -0.0627
32853W        W36451   3.894   0.428   0.683 -0.0042  0.0817  0.2554
32854W        W36452  13.047  15.073   8.437  0.2196  0.2524  0.2579
32855W        W36453   8.311   1.828   7.087 -0.1157 -0.0560 -0.2044
32856W        W36454   5.870  14.977  11.960  0.5190  0.2623 -0.0969
32857W        W36455  11.679   4.269   2.756  0.2094 -0.1253  0.0017
32858W        W36456   3.331  15.906  11.673  0.0257  0.2186 -0.1337
32859W        W36457   4.484   1.871   9.704  0.1023  0.0714  0.0501
32860W        W36458   1.034  10.772   5.518  0.0895 -0.1994 -0.0692
32861W        W36459  15.471   2.677   6.337  0.0531  0.1020  0.2379
32862W        W36460   5.258   0.278  15.687  0.1390  0.0694  0.1750
32863W        W36461  16.132   5.318   3.226  0.0423  0.1387 -0.0650
32864W        W36462   1.201  10.200  10.436 -0.0879  0.0370 -0.2433
32865W        W36463  11.237  10.919   9.046 -0.2918  0.2432 -0.0922
32866W        W36464  11.054   7.278   7.250 -0.2268 -0.2422  0.0868
32867W        W36465  15.720  15.323   1.294  0.2370 -0.1526 -0.0144
32868W        W36466  15.885  11.474   8.701 -0.0430 -0.0345  0.1195
32869W        W36467   7.199  14.523   7.561  0.0402  0.0301  0.2087
32870W        W36468   6.220   5.565  11.428 -0.0657 -0.3077  0.1531
32871W        W36469   7.009  10.861  14.189 -0.1996  0.2505 -0.0590
32872W        W36470   1.254  11.626   3.253 -0.1800 -0.0727 -0.0748
32873W        W36471   4.978   3.267   3.880 -0.5007  0.0884  0.1884
32874W        W36472   3.693   4.229   4.433 -0.0344  0.2858 -0.4980
32875W        W36473   9.526  10.995   7.609 -0.0077 -0.0157 -0.2920
32876W        W36474  14.694   3.444  12.420  0.6199  0.0484 -0.3422
32877W        W36475   1.011   3.117   3.509 -0.0554  0.1442 -0.0719
32878W        W36476   6.235  16.298   8.766 -0.2741  0.0913 -0.0683
32879W        W36477   2.183  14.268   1.593  0.0404  0.0569 -0.3727
32880W        W36478   9.607  10.783   0.876  0.1765  0.1566  0.0242
32881W        W36479   8.794   0.186  14.344  0.1629  0.0063  0.3019
32882W        W36480   8.696   2.329   1.066  0.1853  0.2457 -0.1734
32883W        W36481   8.304   6.034  10.623 -0.2120  0.0556 -0.2870
32884W        W36482   5.401  12.831   1.752 -0.0767  0.3850  0.1317
32885W        W36483  10.663   9.451   4.123 -0.0640 -0.0387 -0.3472
32886W        W36484  15.095   2.642   3.182  0.2908  0.0103 -0.2599
32887W        W36485  10.971  13.310   5.559  0.0217 -0.0209  0.0041
32888W        W36486  14.365   6.537   5.152 -0.2635  0.1611 -0.1196
32889W        W36487   5.743   8.824  10.277  0.0055 -0.1352  0.0888
32890W        W36488   3.400   3.352  10.181 -0.1754  0.0109  0.0703
32891W        W36489   8.854   4.981  10.208 -0.0051  0.1686  0.0310
32892W        W36490   5.568   0.683  16.226 -0.2398 -0.3228  0.0835
32893W        W36491   4.303   8.398   9.160  0.2488 -0.0751  0.0540
32894W        W36492   6.566  11.513   9.934  0.0115  0.1100 -0.3856
32895W        W36493  13.760   4.171   2.598  0.2444 -0.1888 -0.2744
32896W        W36494  10.062  12.460   2.257 -0.0217 -0.1266 -0.3292
32897W        W36495   3.578  12.297  14.958 -0.1095  0.1407 -0.0453
32898W        W36496  15.488   8.815  15.463  0.4624  0.0887  0.1826
32899W        W36497   0.273  14.764   8.420  0.4836  0.2346 -0.0588
32900W        W36498  16.152  10.527   2.086  0.1928  0.2530  0.0594
32901W        W36499   1.089   9.956   7.003  0.2536  0.1539  0.0933
32902W        W36500   9.168  11.054   7.921  0.3025  0.0534  0.0514
32903W        W36501  12.723   5.104   9.440  0.2824 -0.0139  0.0595
32904W        W36502   6.611  10.093  11.080  0.0982  0.2355  0.0069
32905W        W36503   9.355  12.113  11.266  0.1346 -0.3744 -0.2335
32906W        W36504  11.386   5.214   9.336 -0.1847  0.0353 -0.3061
32907W        W36505   5.412   4.346   8.871  0.0495  0.2081 -0.3471
32908W        W36506  12.945  15.196   7.011  0.0770 -0.1769  0.1249
32909W        W36507  12.630   7.981  15.660  0.1145 -0.1167  0.0967
32910W        W36508   5.221   0.994  15.040 -0.2186  0.2174 -0.2609
32911W        W36509   0.248   5.926   3.768 -0.2406 -0.0307 -0.1433
32912W        W36510   9.049   1.120   5.009 -0.0031 -0.0121 -0.2296
32913W        W36511  12.239  13.759  12.589  0.0010 -0.2104  0.3424
32914W        W36512   7.764  11.310   2.083 -0.1669 -0.2472  0.3655
32915W        W36513   7.145   3.917  14.451  0.0661  0.0391  0.0184
32916W        W36514   6.784  13.960   9.163  0.0825 -0.1810  0.2382
32917W        W36515   5.443  10.113  13.969  0.0353 -0.0424  0.0704
32918W        W36516   3.137  13.875  15.786  0.0534  0.1635  0.3153
32919W        W36517   1.390   9.654  10.861  0.0598 -0.2820 -0.2049
32920W        W36518   3.473   6.472  11.259  0.0396  0.0224 -0.0547
32921W        W36519  15.524  15.728   7.770 -0.2118 -0.1501  0.1786
32922W        W36520   9.227   2.217   8.581 -0.1899 -0.3424  0.0220
32923W        W36521  12.612  13.130   9.717  0.0614  0.2147  0.1050
32924W        W36522  10.170   6.186  15.656  0.0390 -0.0267 -0.1113
32925W        W36523   8.019   3.554   3.314 -0.1427 -0.0133 -0.1460
32926W        W36524   5.389   3.881  16.342  0.1772  0.1977 -0.0524
32927W        W36525  11.900   6.237   5.917 -0.2262 -0.0893 -0.0731
32928W        W36526   8.364   7.719   5.278 -0.3325  0.3583 -0.2828
32929W        W36527   0.156   9.043  11.351 -0.1545 -0.0381 -0.1057
32930W        W36528   7.465   6.154   9.397  0.0282 -0.1818  0.3598
32931W        W36529   2.312   5.716  14.113 -0.1306 -0.0861  0.2470
32932W        W36530   8.813  12.345  14.763 -0.1612 -0.1055 -0.0884
32933W        W36531  10.527  12.096  11.934 -0.2686  0.0980 -0.0197
32934W        W36532  15.554   9.008  14.915  0.0707  0.0991  0.2767
32935W        W36533  16.156   3.261  10.422 -0.0198  0.1746 -0.0467
32936W        W36534   1.112  15.813   9.150  0.1058 -0.0906 -0.0342
32937W        W36535  15.765  13.645  13.822 -0.1260  0.1858  0.2888
32938W        W36536  15.467   5.672   0.421  0.1170  0.0288 -0.0941
32939W        W36537  10.306   5.141   2.162 -0.0874 -0.1736  0.0192
32940W        W36538   4.691   7.503  12.449 -0.3503  0.0008  0.2770
32941W        W36539  11.428   1.083   2.892 -0.1548 -0.0528 -0.3307
32942W        W36540  15.980  15.543   9.765 -0.4162  0.2981 -0.1053
32943W        W36541   8.494  10.945   6.392  0.1710  0.3465  0.2021
32944W        W36542   9.312  15.144  13.830 -0.1016 -0.1422  0.1200
32945W        W36543   3.860  15.428  10.605  0.2171  0.0670  0.1655
32946W        W36544   9.128  10.608   8.156 -0.2268 -0.1821  0.2954
32947W        W36545   1.298  12.416  15.696  0.1604 -0.0529  0.1560
32948W        W36546   3.600   2.409  11.355  0.0509 -0.1424  0.2835
32949W        W36547   1.521  12.993   2.205  0.3151  0.2675  0.2603
32950W        W36548  14.992   3.108   4.349  0.2349  0.0763  0.2037
32951W        W36549   6.185   1.119   5.026  0.4573 -0.1620 -0.1082
32952W        W36550   0.192  14.085   4.161  0.1130  0.2799 -0.0678
32953W        W36551   4.126   2.440   1.524  0.3956 -0.0708  0.1901
32954W        W36552   3.460   0.591  12.385 -0.1000 -0.3342  0.1491
32955W        W36553  15.402   2.767  11.626  0.0938 -0.0569  0.4428
32956W        W36554   5.698   3.752   6.453 -0.0912 -0.1652 -0.3845
32957W        W36555   9.149   2.340   9.131  0.0330  0.2509  0.2586
32958W        W36556   8.186  16.166   2.802 -0.1369  0.0936 -0.0289
32959W        W36557   1.157   2.417  13.203  0.0337 -0.6057 -0.1199
32960W        W36558  14.524  15.648  13.245  0.2069 -0.0446 -0.1149
32961W        W36559  15.030   2.989   2.371 -0.0214  0.0629 -0.0304
32962W        W36560   8.288   2.285  12.898 -0.0301 -0.1036  0.0646
32963W        W36561   8.260  11.320   0.402  0.0668  0.1966 -0.0352
32964W        W36562   5.837  14.416  12.575  0.0945 -0.1262  0.0205
32965W        W36563   9.608   1.572  11.395  0.0626 -0.1620 -0.2619
32966W        W36564   2.218  11.921   3.508  0.3006  0.1090 -0.2240
32967W        W36565   2.331  12.399  11.306  0.0702 -0.0380  0.1986
32968W        W36566  10.230  15.970   1.402 -0.0583 -0.0069  0.1263
32969W        W36567   1.585   7.903   6.100 -0.2378  0.0778  0.2325
32970W        W36568  10.118  13.181  10.880 -0.1586  0.1069 -0.0527
32971W        W36569   0.497   0.810   2.377  0.0675  0.2760  0.4183
32972W        W36570  13.188  11.310   3.653 -0.1923 -0.0739 -0.3806
32973W        W36571   9.693   2.366  11.800  0.2496 -0.0270 -0.1827
32974W        W36572  14.073  12.947   1.784  0.0415 -0.0905 -0.1325
32975W        W36573   1.074   8.726   3.477 -0.3724  0.0792 -0.1657
32976W        W36574  12.465   1.549  11.356 -0.1217 -0.1376  0.5225
32977W        W36575  13.732   6.813  10.458  0.0559 -0.1672 -0.4130
32978W        W36576   4.738   6.949  13.846  0.0804  0.0884 -0.0227
32979W        W36577   6.933   0.027  14.628 -0.1912  0.4124 -0.0495
32980W        W36578   7.278   4.034  13.956 -0.1555  0.0247 -0.1612
32981W        W36579   6.894   4.039   2.149  0.0598 -0.0040 -0.2083
32982W        W36580  16.055  14.688  12.692 -0.0015 -0.0063  0.1004
32983W        W36581  12.125  11.768   1.845 -0.1383 -0.1470 -0.1591
32984W        W36582  12.239   6.457   3.779 -0.0582 -0.1860 -0.1978
32985W        W36583  15.660   3.252  13.779  0.1219 -0.2411  0.0703
32986W        W36584  10.719   4.024   3.150  0.4104 -0.2134 -0.0777
32987W        W36585   7.074   8.800  11.105  0.2435 -0.3316  0.0072
32988W        W36586  10.249  15.622   5.541 -0.0196  0.0120  0.0372
32989W        W36587  13.313   3.696   8.878  0.0505  0.3081  0.1792
32990W        W36588   4.783  13.745   8.179  0.1064 -0.1296  0.1138
32991W        W36589  13.046  10.248   1.107  0.1398 -0.0287 -0.0263
32992W        W36590   9.004  15.504  11.302 -0.1300 -0.2551 -0.1725
32993W        W36591  13.202   5.036  13.531 -0.0895 -0.3527 -0.4196
32994W        W36592   6.362  11.119   2.323  0.2150  0.0406 -0.1468
32995W        W36593   4.017  11.315   3.452  0.3033 -0.0317  0.0769
32996W        W36594   2.547  11.658  10.760 -0.2363 -0.0751  0.0895
32997W        W36595  13.153   8.408   4.300  0.1348  0.0697 -0.2457
32998W        W36596   5.334  16.336   1.034  0.0583  0.1528 -0.0697
32999W        W36597   3.250   9.670   6.022  0.0999  0.1177  0.1107
33000W        W36598   5.590   6.857   7.444 -0.1546  0.4127  0.1722
33001W        W36599   0.784   9.293   1.141  0.0749 -0.0930 -0.3310
33002W        W36600   3.303  11.220   8.616 -0.5339 -0.3022  0.1681
33003W        W36601   6.303  12.569  14.029  0.0116  0.4279  0.0121
33004W        W36602   7.411  12.191   8.394 -0.0182  0.0052  0.0887
33005W        W36603   3.706   2.053   3.435  0.0331  0.2058 -0.1697
33006W        W36604  13.893  12.161   3.284 -0.1509 -0.0527 -0.2932
33007W        W36605   3.477  10.302   1.823 -0.0736  0.1149  0.2420
33008W        W36606   2.137   9.281   4.873 -0.4341  0.1067 -0.0121
33009W        W36607  16.285  12.908  10.865 -0.1300  0.1789  0.1466
33010W        W36608  13.945   4.539   4.421 -0.1347  0.3306 -0.0698
33011W        W36609   7.408  16.245  13.827  0.1631 -0.1461 -0.4834
33012W        W36610  13.568  15.458   3.140 -0.2691  0.0741 -0.0211
33013W        W36611  14.475   5.686  13.920  0.2721  0.4169 -0.3694
33014W        W36612  11.636  15.118   7.113 -0.3013  0.0244 -0.3105
33015W        W36613   5.779   7.172   0.386  0.2618  0.2091  0.2618
33016W        W36614   3.153   0.324   9.641  0.2343  0.3170 -0.0850
33017W        W36615  14.873  15.607   2.191 -0.2247 -0.0361 -0.1218
33018W        W36616   7.803   9.828   6.152  0.0866 -0.1442 -0.1037
33019W        W36617   5.346   6.369  10.023  0.0652  0.0494  0.2909
33020W        W36618  16.285   4.578  10.770  0.3363  0.2941 -0.0219
33021W        W36619  11.658   5.447   5.229 -0.3348  0.1545 -0.0097
33022W        W36620  15.828  11.738  15.496 -0.1665 -0.1194  0.1760
33023W        W36621   9.769  14.585   4.460 -0.1496  0.0549  0.2173
33024W        W36622   8.841   7.947   5.175 -0.1467  0.0839 -0.3261
33025W        W36623  10.543  12.223   6.117 -0.0554 -0.2172  0.1074
33026W        W36624   3.796   5.097  14.481 -0.0356 -0.0862 -0.2088
33027W        W36625   7.771   6.136   6.739 -0.4710 -0.0525  0.0123
33028W        W36626   9.829   2.842  10.863  0.1902  0.1856  0.0399
33029W        W36627   3.319  14.388  12.843  0.0855  0.0885  0.3814
33030W        W36628  12.198  12.023   4.735  0.0360 -0.3395  0.0838
33031W        W36629   2.519   5.887  12.170 -0.0440  0.2249 -0.0511
33032W        W36630   0.243  13.527   6.981  0.0174  0.1732 -0.1127
33033W        W36631   3.073  12.382  15.842 -0.1981 -0.0875  0.0335
33034W        W36632   6.315   2.759  11.112 -0.0253 -0.1989 -0.0271
33035W        W36633  15.535   0.715  15.973  0.0113 -0.0805 -0.1208
33036W        W36634   6.920   1.395  12.724 -0.2286  0.4839  0.2557
33037W        W36635  10.587   5.460  14.158  0.1371  0.3238 -0.0833
33038W        W36636   7.755  12.431   4.102  0.2782  0.4417  0.1451
33039W        W36637   4.369  15.413   3.692  0.0055 -0.2304  0.0340
33040W        W36638  12.791   9.644   1.163 -0.0573  0.3053  0.1707
33041W        W36639   8.238   6.358   5.122  0.2012  0.1237  0.0351
33042W        W36640  11.852  10.246  10.680  0.1045 -0.1677  0.0565
33043W        W36641   3.292  10.108  10.372 -0.0488 -0.1163  0.0666
33044W        W36642  11.140   5.488  10.348  0.2153 -0.1649  0.0879
33045W        W36643  16.268   2.072   9.404 -0.3295 -0.0072  0.2318
33046W        W36644   9.718   4.849  13.301 -0.1195 -0.0506 -0.2314
33047W        W36645   8.810   4.625   2.064 -0.0717 -0.5244 -0.0534
33048W        W36646  14.423   3.878   5.192  0.0540  0.1008 -0.1685
33049W        W36647  13.391   5.280  15.850 -0.3630  0.3642  0.2564
33050W        W36648  14.964  14.965  12.199  0.0378  0.2377  0.0030
33051W        W36649   7.687   8.125  10.410 -0.1017 -0.0036  0.1123
33052W        W36650   9.304   4.735   6.501 -0.0850 -0.0985 -0.0821
33053W        W36651  10.173   0.249  15.183  0.3715  0.0773  0.1525
33054W        W36652  11.911   1.367   5.218 -0.4376  0.2289 -0.0559
33055W        W36653  12.886   2.233   6.626  0.0100 -0.1658 -0.1209
33056W        W36654   9.888   5.587  12.727  0.1123  0.3643  0.0476
33057W        W36655  12.570   5.191  15.722 -0.0299 -0.1852  0.4768
33058W        W36656   8.049  13.223  12.425  0.0528 -0.0741  0.3980
33059W        W36657   5.645   7.702  12.224  0.0891 -0.0532  0.0072
33060W        W36658  11.242   8.818   1.992  0.1278  0.1115  0.2560
33061W        W36659   9.341   2.937   3.325 -0.3178 -0.1131  0.1945
33062W        W36660  11.897  15.312   2.078 -0.4370  0.1433 -0.2388
33063W        W36661  12.170  11.417   0.459  0.0582  0.0863  0.1922
33064W        W36662   5.469  12.963  15.338 -0.3297 -0.4548  0.0297
33065W        W36663   3.816   5.701  11.517  0.1844  0.2451 -0.0459
33066W        W36664   5.048   2.780   3.737 -0.1042  0.0173 -0.0206
33067W        W36665   5.239   0.341  13.256  0.2447  0.1529  0.1231
33068W        W36666  13.020  12.023  11.756  0.1214  0.1551 -0.1341
33069W        W36667   5.764   3.402   5.587 -0.0708  0.1670 -0.0079
33070W        W36668   3.192  11.666  15.308 -0.0774 -0.3196 -0.1507
33071W        W36669   6.056   4.959   2.024 -0.1934  0.1163  0.1653
33072W        W36670   4.365   0.703   5.782 -0.0092 -0.0675  0.0157
33073W        W36671   1.236   4.549   4.002  0.0603 -0.1984  0.1619
33074W        W36672   8.024  11.795   4.913 -0.0524  0.2513 -0.1133
33075W        W36673   3.471   4.576   1.872 -0.0645 -0.0615 -0.2877
33076W        W36674   5.417  13.799   4.179 -0.2885 -0.0701  0.0551
33077W        W36675  13.652   5.804  15.840 -0.1455  0.0113 -0.2570
33078W        W36676   3.113  15.446   9.619 -0.0676 -0.2988 -0.1020
33079W        W36677  15.716   5.654   9.808  0.0029 -0.0276 -0.0846
33080W        W36678  11.777   7.260   8.081  0.1196  0.1318  0.1631
33081W        W36679  16.030   0.138   8.225  0.0524 -0.0438 -0.3319
33082W        W36680   9.763  14.179   8.735  0.2455  0.1410  0.1077
33083W        W36681   3.465   2.052   0.533 -0.0717  0.0151 -0.0516
33084W        W36682  12.472  13.607  13.746 -0.0284 -0.3553 -0.0652
33085W        W36683   2.257   5.298   6.591  0.2345 -0.1805  0.1255
33086W        W36684   0.560   9.373  11.495  0.0161 -0.2404  0.4599
33087W        W36685   4.802   3.191  10.020 -0.0859 -0.2181 -0.0286
33088W        W36686   3.987   1.359  13.173 -0.0944  0.1516  0.1849
33089W        W36687   1.751   8.111  14.754  0.0902  0.1745 -0.0791
33090W        W36688   9.624  13.022  15.021 -0.1203  0.2299 -0.1606
33091W        W36689  11.475  10.384   9.696  0.3781 -0.2353 -0.2732
33092W        W36690   2.502   5.866   4.754  0.0129 -0.0638 -0.1443
33093W        W36691   1.086  15.463  14.209 -0.2996 -0.3790  0.3232
33094W        W36692  14.491   9.476  15.091 -0.1035 -0.1138  0.0002
33095W        W36693  15.253   9.647   5.340  0.0358  0.0969  0.1519
33096W        W36694  13.265   8.771  13.668 -0.4044  0.0124  0.0828
33097W        W36695   5.382  16.181  12.843  0.2009 -0.2165  0.0886
33098W        W36696   9.774  14.387  15.608 -0.0689 -0.1954 -0.1598
33099W        W36697  13.035   6.929   2.798  0.0730 -0.0701 -0.1677
33100W        W36698   8.836   3.829  12.737 -0.3146  0.1565 -0.0301
33101W        W36699  13.656   5.495   9.621  0.0499  0.0387 -0.3742
33102W        W36700  15.261   3.667  10.637 -0.0687  0.0765 -0.2520
33103W        W36701   1.395   9.675  12.003  0.0961 -0.0545 -0.4909
33104W        W36702   1.461   7.862   4.331 -0.0284  0.0334  0.1011
33105W        W36703  15.000   7.615   4.875 -0.1050  0.0711 -0.1382
33106W        W36704   5.724  16.251  13.229 -0.0214 -0.0198  0.0316
33107W        W36705   4.335   6.457   4.061 -0.0180 -0.2412  0.0957
33108W        W36706   6.471  13.360   4.641  0.1486 -0.0306  0.3433
33109W        W36707   7.111   8.809  14.706  0.0674  0.0280 -0.0666
33110W        W36708  11.742  12.189   8.214  0.1014  0.3520  0.0590
33111W        W36709   8.099   4.892   8.646  0.0906  0.2216  0.1624
33112W        W36710   3.001   2.372   3.976 -0.0444  0.0798 -0.2548
33113W        W36711   2.770  13.622   1.325  0.0594  0.2312 -0.0230
33114W        W36712  13.721  13.036   4.345 -0.1868 -0.0119  0.2819
33115W        W36713  10.771  10.499  16.382 -0.2236 -0.6310 -0.2238
33116W        W36714   9.424   2.987  11.196  0.1748  0.0503  0.0864
33117W        W36715   0.207   0.145   5.493  0.2433 -0.4100 -0.0209
33118W        W36716   6.879   8.186   4.973  0.0256 -0.2558 -0.1103
33119W        W36717   8.661  13.045   0.055 -0.2967  0.0417  0.1877
33120W        W36718  11.883   3.216  15.887  0.0598 -0.3193 -0.3602
33121W        W36719   9.945   0.919   5.011  0.2038  0.0642 -0.2282
33122W        W36720   1.645   1.800  13.701  0.1159 -0.0258 -0.3361
33123W        W36721   7.678  10.465   4.690 -0.0935  0.3090 -0.1259
33124W        W36722   5.926   2.372  13.968 -0.0821 -0.0687 -0.1184
33125W        W36723  13.671   4.115   1.864 -0.0466 -0.0380  0.1909
33126W        W36724   0.111  15.602  15.365  0.1354  0.1916 -0.3889
33127W        W36725   1.549   4.562  15.220  0.1810 -0.0352 -0.2309
33128W        W36726   1.768   0.360   3.553 -0.0719 -0.3149  0.1796
33129W        W36727   1.065  16.373   8.784 -0.3456  0.1582  0.1829
33130W        W36728  10.599   1.723  14.338 -0.1026 -0.2100  0.1992
33131W        W36729  16.072   0.552  12.375 -0.1960 -0.0343  0.1492
33132W        W36730  14.825  14.776   5.776 -0.3672  0.2559  0.2422
33133W        W36731  14.664  13.565   0.092 -0.0401 -0.1477 -0.2323
33134W        W36732   0.239  13.517   9.543 -0.1076  0.5121  0.0088
33135W        W36733  10.885   3.857   0.649  0.2681 -0.1614  0.1464
33136W        W36734   4.371   0.959   0.282 -0.2779  0.4400 -0.0175
33137W        W36735  12.978  12.868  12.140 -0.1211  0.1537  0.0611
33138W        W36736  12.801   2.896   7.943  0.1638 -0.1483 -0.1275
33139W        W36737  10.829  16.105   0.363  0.0234  0.0035  0.0624
33140W        W36738  10.854   7.127   2.769  0.0102  0.0791 -0.2779
33141W        W36739  14.422  15.790  10.173  0.1485  0.1806  0.2673
33142W        W36740   1.662   2.955  11.936 -0.3187 -0.0038 -0.0697
33143W        W36741   3.668  14.462  11.140  0.0717 -0.1208 -0.0417
33144W        W36742   3.917  15.617   7.341 -0.0701  0.0658 -0.1811
33145W        W36743   7.162   5.738   8.748  0.1812  0.1445  0.1335
33146W        W36744  10.306   4.363   5.268  0.0150  0.0360  0.0121
33147W        W36745  12.188  12.515   1.496  0.4949  0.0019  0.0880
33148W        W36746   2.571   1.672   5.541  0.1237 -0.1607  0.2534
33149W        W36747   5.689   2.847   9.806 -0.2012 -0.0979  0.0854
33150W        W36748   4.371  11.094   7.575  0.1383  0.2419 -0.0981
33151W        W36749   6.591   3.583  11.297 -0.0196  0.2539  0.3526
33152W        W36750   3.915   0.802  14.740 -0.0470  0.1018 -0.0802
33153W        W36751  11.306   1.443   3.965 -0.3705 -0.2913 -0.2650
33154W        W36752  12.806  11.072  13.788  0.1266  0.1030 -0.1029
33155W        W36753  11.999   9.743  14.035  0.1629  0.0134 -0.0795
33156W        W36754  16.103  12.158  15.379  0.0901  0.3571  0.0117
33157W        W36755  10.456  15.760   0.448  0.2097 -0.1419  0.0673
33158W        W36756   0.818   3.112   6.999  0.0300  0.1626 -0.0190
33159W        W36757  10.685   0.069   8.382 -0.0611  0.1700  0.1749
33160W        W36758   0.116   4.255   2.800 -0.0282 -0.3669 -0.0547
33161W        W36759   5.034  14.682  12.390  0.1663 -0.1032  0.0992
33162W        W36760  10.026   4.774  14.468 -0.0239  0.0083 -0.0533
33163W        W36761  14.424   8.325   0.503 -0.1114 -0.2521  0.0533
33164W        W36762  11.349  15.618  12.344 -0.2618 -0.1831 -0.0325
33165W        W36763   8.319   8.966   4.426 -0.1489  0.0246 -0.0972
33166W        W36764   1.119   6.963   4.501  0.1503  0.0580 -0.1125
33167W        W36765   2.932  11.751  13.875 -0.1928  0.3132 -0.3463
33168W        W36766  14.821  14.820   1.457 -0.0403  0.0269 -0.0871
33169W        W36767   4.997  10.600   2.149 -0.2670  0.0079 -0.0559
33170W        W36768   4.741   6.031  15.422  0.1901  0.3409 -0.0006
33171W        W36769  11.458   2.885  15.707 -0.1489  0.2571 -0.2859
33172W        W36770   0.548  10.844   5.759  0.0776  0.1383 -0.1573
33173W        W36771  13.623  14.646  10.377  0.1890  0.1785 -0.0615
33174W        W36772  15.290   1.474  15.457 -0.1086 -0.0116  0.0793
33175W        W36773   5.274  13.105  13.199  0.2794 -0.0213 -0.1490
33176W        W36774   8.776   5.571   3.568 -0.4520  0.4678 -0.1007
33177W        W36775   8.265   4.533  16.230  0.3345  0.0799  0.0453
33178W        W36776   6.646   3.351   1.922 -0.1724 -0.1892 -0.3460
33179W        W36777  11.172   6.651  15.430  0.1942 -0.3477 -0.0599
33180W        W36778   8.668   4.242   7.023 -0.0449  0.0375 -0.1733
33181W        W36779  10.624  13.533  12.354 -0.2222  0.3093  0.0751
33182W        W36780   9.945  15.191   0.004 -0.2699  0.1102  0.0043
33183W        W36781   8.853   4.867   4.517  0.0476  0.0862 -0.0664
33184W        W36782  14.339   8.580  15.266 -0.1651  0.1666 -0.3542
33185W        W36783  13.285  14.120   5.942 -0.2556  0.1873  0.0802
33186W        W36784  15.736   9.965  10.260 -0.0156 -0.0229  0.1774
33187W        W36785   8.534  11.399   8.016 -0.2464 -0.4225  0.1073
33188W        W36786  12.045   9.956  12.606 -0.0664 -0.0498  0.2127
33189W        W36787   3.366  14.107   4.788  0.1449  0.1835 -0.0272
33190W        W36788   3.868   5.632   4.076 -0.1955  0.1986  0.0961
33191W        W36789  14.718   8.670   2.876 -0.2409 -0.0302  0.0992
33192W        W36790   5.506  10.432   2.050 -0.0642 -0.2045 -0.0398
33193W        W36791  10.953  12.712  12.292  0.1059  0.2353  0.0794
33194W        W36792  15.562   2.705   1.613 -0.2515  0.0682  0.0123
33195W        W36793   0.576  11.704   9.818  0.4117  0.0499 -0.0378
33196W        W36794   1.958  11.085   4.391 -0.0853 -0.0342  0.1023
33197W        W36795  15.611   4.385   4.559 -0.0645  0.5485  0.0673
33198W        W36796  16.310  10.974  16.083  0.2134 -0.0020  0.3227
33199W        W36797  12.509   0.138   7.169 -0.2159  0.1223  0.1289
33200W        W36798  16.316   8.207   1.922  0.1288 -0.0639 -0.0667
33201W        W36799   0.642   3.992  16.241  0.2717 -0.0650  0.0803
33202W        W36800   7.652   2.055   9.206 -0.0027 -0.1726  0.0524
33203W        W36801   1.829  15.707   8.530  0.0659 -0.0086  0.2155
33204W        W36802   2.441   4.790   0.900  0.2141  0.1577  0.0118
33205W        W36803   5.901   1.450  13.219 -0.0441  0.0294  0.0227
33206W        W36804   1.223   7.707   8.089 -0.0692  0.1254 -0.2309
33207W        W36805  12.177  16.273  15.706  0.1977 -0.1950 -0.1006
33208W        W36806  12.403  13.146  15.448  0.3581 -0.0316 -0.0203
33209W        W36807   5.346   9.393   6.158  0.1121 -0.0300  0.1919
33210W        W36808   8.013   9.242   2.931 -0.0460 -0.0541 -0.3248
33211W        W36809   4.990   1.125   6.011  0.3437 -0.1966  0.2382
33212W        W36810   5.004   7.182  14.207  0.4367  0.3475  0.1435
33213W        W36811  14.638  10.193  10.123  0.0270  0.2030  0.0401
33214W        W36812   7.048   0.106   0.211 -0.2382 -0.1954 -0.0507
33215W        W36813   2.643   3.073  15.321  0.0842  0.0611  0.1128
33216W        W36814   7.313   6.196   7.523 -0.0581 -0.3144  0.0278
33217W        W36815  14.189   9.949  14.962 -0.0403 -0.0276 -0.0240
33218W        W36816   0.804  15.816   2.694  0.3680 -0.0605  0.0053
33219W        W36817   1.275   0.060   6.394  0.1649  0.0826 -0.0672
33220W        W36818  14.430   4.920  16.016 -0.1291  0.1344  0.1715
33221W        W36819   9.205   2.898   4.812 -0.1877  0.3072  0.4651
33222W        W36820   8.514   6.468   9.081 -0.1781  0.0238  0.0316
33223W        W36821  13.821   3.572   4.686 -0.2125 -0.1795  0.0184
33224W        W36822  10.817  15.218  12.044 -0.1887  0.0809  0.1582
33225W        W36823  15.245   5.844   9.030  0.0324 -0.2679 -0.2972
33226W        W36824   9.071   0.203   9.209  0.0410 -0.0271 -0.1391
33227W        W36825   3.395  10.688  14.915  0.1493 -0.0959  0.0980
33228W        W36826   7.101   7.056  16.393  0.3366  0.1462 -0.1555
33229W        W36827   3.414   8.778   1.999  0.3168 -0.1822 -0.1233
33230W        W36828  12.054   5.156   7.257  0.1796 -0.4567 -0.0245
33231W        W36829  15.456   4.063  10.834  0.2347 -0.2227 -0.0619
33232W        W36830   7.669   2.151  11.014 -0.0035 -0.0959 -0.4838
33233W        W36831   4.477  13.739   6.624 -0.0587  0.1057 -0.2091
33234W        W36832  11.979  12.471   4.732  0.0414  0.3010  0.2079
33235W        W36833  14.249   3.085  10.497  0.0532 -0.2996 -0.1938
33236W        W36834   6.971   5.736   1.162  0.0470 -0.1301 -0.1615
33237W        W36835   3.708   2.015   7.507 -0.2709 -0.1674 -0.2718
33238W        W36836   0.704   0.582   1.981  0.0276  0.1275 -0.0431
33239W        W36837  14.424  16.324   7.704  0.0010 -0.0869 -0.3921
33240W        W36838   2.284   3.481  11.808  0.0738 -0.2029  0.1017
33241W        W36839  12.562  15.119   7.449  0.1316  0.0053  0.3168
33242W        W36840  15.329   6.817   3.087  0.4169 -0.0935 -0.2074
33243W        W36841   7.314   9.014  12.702 -0.1663  0.5214 -0.1113
33244W        W36842   0.055   4.164   5.892 -0.2487 -0.3527 -0.2312
33245W        W36843   3.414   7.132  14.601 -0.1561  0.0588  0.1086
33246W        W36844   5.115   9.136   9.342 -0.0317 -0.1651  0.3050
33247W        W36845   6.116  14.006   2.384  0.0490  0.1147 -0.1049
33248W        W36846   7.399   1.463  15.316  0.0794  0.1790  0.1177
33249W        W36847   4.223   4.732  12.505  0.2087  0.1300  0.3245
33250W        W36848  14.604  12.839  12.551  0.0151  0.0448 -0.0082
33251W        W36849  10.974  12.661   4.703 -0.0659  0.0920  0.0757
33252W        W36850   6.192   4.530   1.717  0.0839 -0.4389 -0.1751
33253W        W36851  12.785   6.347   2.468 -0.0394 -0.1996 -0.1682
33254W        W36852  10.535  11.171   2.500  0.0419  0.2610  0.0336
33255W        W36853   8.727  14.782  11.951 -0.1087  0.2014 -0.4431
33256W        W36854   5.688   0.002  11.789  0.2125 -0.0257 -0.0425
33257W        W36855   8.817  16.101  14.089  0.2179  0.1025 -0.0573
33258W        W36856  12.593  11.050  12.871  0.3167 -0.0014 -0.0650
33259W        W36857   7.680   2.081   5.117  0.1834 -0.1412  0.0573
33260W        W36858  11.614  14.004  11.380  0.0468  0.1811 -0.1156
33261W        W36859   0.421   3.423   9.225  0.4399 -0.1133  0.0209
33262W        W36860  10.446  13.734   6.787  0.1921 -0.0244  0.0074
33263W        W36861   6.069  13.505   1.633 -0.0451 -0.0722 -0.1435
33264W        W36862  11.252   2.277   7.564 -0.0566 -0.0688  0.2471
33265W        W36863   9.390   0.599   5.793  0.2003 -0.1119  0.0709
33266W        W36864  15.043   9.475   4.330 -0.2204  0.0063 -0.1965
33267W        W36865   8.973  14.741   7.256 -0.1604 -0.1684  0.1394
33268W        W36866   7.968   7.750   4.950  0.1336  0.0579 -0.2053
33269W        W36867  14.654  11.503   0.692  0.0404  0.0359  0.2670
33270W        W36868   9.051   4.167   1.052 -0.0605  0.1560 -0.1506
33271W        W36869  15.454   6.897  12.696 -0.0346  0.2389  0.2303
33272W        W36870  12.578  14.565  13.180 -0.1010  0.0739 -0.1770
33273W        W36871  13.141  13.189   2.866 -0.1779  0.1917 -0.2774
33274W        W36872   2.190  10.355  14.962  0.0695 -0.1812  0.1386
33275W        W36873   0.300   8.229  12.423  0.0882 -0.1052  0.1868
33276W        W36874  11.288  13.380  10.972  0.0253  0.1959  0.2982
33277W        W36875   3.075   1.318   0.314  0.0789 -0.1440 -0.2838
33278W        W36876  13.548  11.511  14.702  0.0164  0.0880  0.0182
33279W        W36877   6.074   1.249   3.001 -0.2651  0.3825  0.5913
33280W        W36878   1.468   0.599   1.362 -0.2298 -0.2854 -0.1804
33281W        W36879   9.252   7.115   0.692  0.1505 -0.1192 -0.0574
33282W        W36880  10.432   3.869   7.786 -0.0022  0.4133  0.2414
33283W        W36881  11.009   1.855  10.387  0.0358 -0.1181  0.0170
33284W        W36882  13.311  10.031   9.540  0.1080  0.1145  0.0190
33285W        W36883  13.973  13.884  15.738  0.0888 -0.1252  0.0655
33286W        W36884  13.297   1.753  15.773 -0.6538 -0.1224  0.1200
33287W        W36885   0.881  12.203   3.847 -0.0685  0.3503 -0.1853
33288W        W36886  13.207   7.033  10.438  0.0975 -0.0602  0.0320
33289W        W36887  12.102  12.470  16.184  0.2238 -0.1697  0.1147
33290W        W36888  14.070  14.438   7.641  0.0456 -0.0525 -0.2589
33291W        W36889  11.903   1.687  16.038 -0.0630  0.4984 -0.0606
33292W        W36890   2.024   8.257   5.048 -0.2142 -0.0475  0.2689
33293W        W36891   9.487   3.302   9.616  0.0552  0.1214 -0.1981
33294W        W36892   6.682   7.577  13.625 -0.0462  0.1618  0.4118
33295W        W36893   0.486   4.993  11.120  0.0842 -0.0703 -0.2898
33296W        W36894   8.620   4.116  10.343 -0.0371  0.3297 -0.0963
33297W        W36895  13.513   7.668   3.966  0.3592  0.2028 -0.2312
33298W        W36896  10.350   1.807  11.298 -0.0628 -0.0509 -0.0473
33299W        W36897   5.427  10.594   8.063  0.1400 -0.3301  0.0290
33300W        W36898  12.513   6.181   1.757 -0.2623  0.2311 -0.2578
33301W        W36899   7.221   3.256   4.571  0.2283 -0.1679  0.0602
33302W        W36900  14.976  12.371   4.182  0.1175 -0.1819  0.1541
33303W        W36901   2.229   6.572   1.371  0.0942 -0.2822 -0.1659
33304W        W36902  10.475   9.024   8.919 -0.0066 -0.2667  0.3441
33305W        W36903  12.672  11.560   6.411  0.2011 -0.3352 -0.0100
33306W        W36904  15.071   8.374   9.931 -0.1663 -0.0306  0.1683
33307W        W36905   6.250  10.541  11.679 -0.2200 -0.0272  0.0696
33308W        W36906  13.149  11.859  12.831  0.2454 -0.0893 -0.0122
33309W        W36907   2.406   8.250   1.814 -0.1107 -0.1303 -0.0608
33310W        W36908   6.414   0.883  11.455 -0.0634  0.1647  0.0352
33311W        W36909   6.896   7.519  11.493 -0.0456 -0.3194  0.1449
33312W        W36910   0.370  15.885   6.910 -0.1096 -0.1904 -0.0978
33313W        W36911   0.697   6.200   9.541 -0.4218  0.1653 -0.3302
33314W        W36912  12.098   8.765  11.411  0.1445 -0.1942  0.2172
33315W        W36913   1.990  14.222   0.452  0.0534  0.0034 -0.1400
33316W        W36914   4.627  16.135  16.132  0.1397  0.0888 -0.1616
33317W        W36915   7.482   3.990  13.322  0.1059  0.0326 -0.0723
33318W        W36916   7.818   3.057   3.334  0.0006 -0.2416  0.2617
33319W        W36917   9.188  10.114  12.914 -0.3669 -0.1260 -0.2616
33320W        W36918   8.940  15.927   1.017 -0.4094 -0.0212 -0.1424
33321W        W36919  14.253   3.790   6.957 -0.2374  0.1213 -0.0600
33322W        W36920   5.042  14.069  13.214  0.0908  0.0396 -0.2531
33323W        W36921  10.673   9.485   7.239  0.1922 -0.1068  0.0322
33324W        W36922   6.862  14.567   4.182  0.1598 -0.1322  0.0681
33325W        W36923   9.297   9.309  10.218  0.0061  0.0242  0.0310
33326W        W36924  16.350   2.190   0.507  0.0547 -0.0136 -0.1415
33327W        W36925   5.941  15.249   9.298  0.1662 -0.2096  0.1401
33328W        W36926   4.993  10.653   8.363  0.1705  0.0220 -0.0482
33329W        W36927  11.080  10.971   2.006  0.1346  0.1395  0.0308
33330W        W36928  11.839  12.214   0.549  0.0562 -0.0054  0.2026
33331W        W36929  15.239   6.551   4.092  0.1643  0.1810 -0.3893
33332W        W36930  16.295   3.120  13.188  0.0067  0.1004  0.2729
33333W        W36931   6.394  14.815   1.113  0.2214 -0.0755 -0.0776
33334W        W36932   9.588   4.341  13.380  0.1790  0.3637  0.3392
33335W        W36933   4.272  16.185   9.511  0.2274  0.1391 -0.1626
33336W        W36934   6.335   8.226   4.764  0.1936  0.5190 -0.0178
33337W        W36935   3.362  11.047   2.926 -0.0707  0.0932  0.0181
33338W        W36936   5.966  15.977   9.655  0.0089  0.1758  0.3536
33339W        W36937  15.790  10.219  12.838  0.3270  0.0761 -0.0387
33340W        W36938   6.839  10.929  13.186  0.0460  0.4249  0.0713
33341W        W36939   5.185  12.036   2.251 -0.1649 -0.1589  0.3780
33342W        W36940   0.972  15.547   4.658 -0.2813 -0.2774 -0.2504
33343W        W36941   7.716   1.934   3.767  0.3805  0.1903  0.0830
33344W        W36942   4.291   4.631   4.175  0.1647 -0.0098 -0.1826
33345W        W36943  11.158  14.212   0.376  0.0095 -0.0763 -0.0825
33346W        W36944   3.536  10.408   4.127 -0.0811  0.0202  0.0975
33347W        W36945  12.176  14.136  14.756  0.1827 -0.4703 -0.3848
33348W        W36946  15.634   9.358  12.393  0.5368  0.2583  0.2443
33349W        W36947  12.859  13.484   1.833 -0.0640 -0.3171 -0.0984
33350W        W36948  14.913   4.142  15.518 -0.0086 -0.3198  0.1876
33351W        W36949  11.503  15.439   9.397  0.0091 -0.0000  0.2805
33352W        W36950   8.650   0.264   9.672  0.2118  0.1274 -0.0076
33353W        W36951   9.095  15.945  11.125  0.3191 -0.3173 -0.0582
33354W        W36952   8.005   1.763  14.829 -0.1351 -0.0326 -0.0555
33355W        W36953   0.937   7.099  15.107 -0.2569 -0.1742 -0.1710
33356W        W36954  13.627   7.797   8.425  0.0526  0.1145  0.0049
33357W        W36955  10.319   8.732  12.673  0.4365  0.1745  0.1858
33358W        W36956   2.797  14.776   2.993 -0.3443 -0.0316 -0.4308
33359W        W36957  11.885   3.162   2.480 -0.2951 -0.0227 -0.0023
33360W        W36958  14.701  15.966  13.837 -0.1966  0.0540 -0.2153
33361W        W36959   0.353   9.413  15.383  0.1908 -0.2003  0.1863
33362W        W36960  15.445   3.522   2.198  0.3880 -0.1613 -0.0681
33363W        W36961  10.899   8.151   5.623  0.3619  0.1156  0.2896
33364W        W36962   3.540   0.240  15.765 -0.2146  0.0571 -0.3780
33365W        W36963   0.649  12.578   0.968  0.2662 -0.2060 -0.0244
33366W        W36964  10.829   5.163  11.813 -0.1463  0.0288  0.1108
33367W        W36965  13.008   7.389  12.612 -0.2152 -0.2822  0.4854
33368W        W36966  14.477   7.479   6.668  0.2172  0.1942  0.2268
33369W        W36967   7.700  13.639   1.328 -0.1095  0.0807 -0.1672
33370W        W36968   9.467   6.064   4.712  0.0806  0.0847 -0.0600
33371W        W36969   3.716   4.730  12.418  0.1903  0.0078 -0.1094
33372W        W36970   5.566   7.164   9.318  0.0924 -0.0196 -0.1261
33373W        W36971   6.733  13.502   5.169  0.1123  0.1676 -0.2811
33374W        W36972   0.400   7.159  15.491  0.0127  0.3468  0.1517
33375W        W36973  11.397   3.164   1.090 -0.0440 -0.0767 -0.2932
33376W        W36974   2.302   9.691   3.380  0.4064  0.1029  0.1726
33377W        W36975   3.445  11.868  16.226 -0.0477 -0.1435  0.0392
33378W        W36976   9.409   1.087   5.967  0.2092  0.0134 -0.0147
33379W        W36977   3.134   5.719  15.330  0.1286  0.0926 -0.0449
33380W        W36978  10.966  15.484   2.537 -0.3357  0.1043  0.2657
33381W        W36979   3.029  14.750  11.376  0.2717  0.0967  0.0229
33382W        W36980  14.824   7.787  11.116  0.1856  0.0190  0.1471
33383W        W36981  14.615   2.645   7.023  0.0724 -0.0761  0.2276
33384W        W36982  12.567  10.041   7.945 -0.2448  0.2148 -0.0061
33385W        W36983  12.877  11.503  13.090  0.0361 -0.1635 -0.0615
33386W        W36984  10.877  13.915   7.991 -0.2382  0.2301 -0.1133
33387W        W36985   5.539   5.377   7.988 -0.1475  0.0055  0.0834
33388W        W36986   3.362   4.260   2.689 -0.4177  0.4575  0.1591
33389W        W36987   9.971  10.970   6.099  0.1681 -0.0264 -0.0433
33390W        W36988   9.358   2.877  14.814 -0.0834  0.1647 -0.4377
33391W        W36989  15.723   7.529   6.069 -0.0384 -0.2954 -0.0509
33392W        W36990   7.109   8.963   0.122 -0.1116  0.0056 -0.2803
33393W        W36991  12.079   7.133  14.877  0.1655 -0.2377 -0.2647
33394W        W36992  14.501  13.959  13.271 -0.2610  0.1752 -0.2192
33395W        W36993   6.035   3.546   1.172 -0.1021  0.1902  0.3288
33396W        W36994   9.127  11.222   5.792  0.3516  0.1692  0.0496
33397W        W36995  13.564  10.488   4.687  0.2010 -0.3215 -0.1975
33398W        W36996  14.902   7.565  15.324  0.0553  0.1791 -0.1234
33399W        W36997   1.642  10.378  11.686 -0.0510  0.1079 -0.0603
33400W        W36998  10.398   0.687   3.783  0.2264  0.1703 -0.2208
33401W        W36999   5.307   7.878   1.239  0.0654 -0.2175  0.1211
33402W        W37000  16.383   6.618   4.277 -0.2001 -0.1693  0.1567
33403W        W37001  11.226   2.200   0.730  0.3168 -0.0985 -0.0363
33404W        W37002  16.198   4.018   1.961 -0.2865 -0.1883 -0.1498
33405W        W37003   3.382   4.944  10.511  0.3034 -0.1464  0.0971
33406W        W37004   1.307  13.519   9.487  0.1885  0.3542  0.1507
33407W        W37005   7.083  10.367  16.074  0.2548 -0.1313  0.3168
33408W        W37006   6.795  15.259  13.680  0.1067 -0.0229  0.0860
33409W        W37007   4.711   6.323   2.937 -0.2563 -0.0758  0.1304
33410W        W37008   7.343   5.589  15.075  0.2049 -0.3192  0.1042
33411W        W37009  15.299  10.400   2.348 -0.0170 -0.0254 -0.0140
33412W        W37010   1.287   8.653  11.979 -0.1939 -0.1895 -0.2260
33413W        W37011  10.241   5.834  10.176 -0.0458  0.0416  0.1251
33414W        W37012  12.587   2.524  16.388  0.3593  0.0253  0.2770
33415W        W37013   2.743  12.882   6.294  0.2442 -0.0258  0.2301
33416W        W37014   2.350  13.886  12.545  0.1132  0.0839  0.0472
33417W        W37015   2.422  13.355   1.659  0.0811  0.1703 -0.1499
33418W        W37016  16.114   1.699   7.931 -0.0645  0.1943 -0.2294
33419W        W37017   2.950   3.184   7.274  0.2217  0.0673  0.1114
33420W        W37018  11.108   6.970  14.624  0.2538  0.2753 -0.0033
33421W        W37019  15.297   3.135   7.450 -0.2472 -0.0605 -0.0325
33422W        W37020  15.906   2.453  13.724 -0.2970  0.1526 -0.0967
33423W        W37021   4.471   7.975   6.964 -0.0825  0.0199  0.3804
33424W        W37022   5.751   2.731   5.887  0.0112 -0.1540  0.2548
33425W        W37023   5.970   8.782   9.746 -0.3732 -0.3392 -0.1390
33426W        W37024  14.344   0.688  11.093 -0.1759 -0.0156  0.2557
33427W        W37025   0.453  12.701   1.385 -0.3589 -0.0829  0.3115
33428W        W37026   2.415   4.439   0.519  0.0677  0.3362 -0.0295
33429W        W37027  10.312   4.424   2.489 -0.0859 -0.1028  0.0381
33430W        W37028   8.283   5.579  11.114 -0.3730 -0.1360  0.1215
33431W        W37029  14.474   7.243  14.732  0.1602 -0.3032  0.5259
33432W        W37030   0.327   9.096  11.877 -0.0789  0.0299  0.0621
33433W        W37031   8.865  12.852  11.387  0.0950 -0.0366  0.1645
33434W        W37032   0.104  15.258   2.583  0.0568  0.1380  0.0283
33435W        W37033   5.718  11.947  12.494  0.1287 -0.1161 -0.1997
33436W        W37034   3.100  15.574  12.548  0.3429  0.1033 -0.2209
33437W        W37035  10.541  12.668   8.949  0.1120  0.3978 -0.1636
33438W        W37036   2.140  15.731   4.083  0.1433  0.2360  0.0848
33439W        W37037   5.135   8.458   4.185 -0.1654 -0.1679  0.2576
33440W        W37038  10.747   3.644   0.196  0.4928  0.1417 -0.3103
33441W        W37039   9.921   8.071  12.196  0.1833 -0.1390 -0.0450
33442W        W37040  12.833  12.342  10.158 -0.2510  0.0459  0.0584
33443W        W37041   4.962  13.604  15.479  0.2249 -0.0522 -0.3260
33444W        W37042  15.099   1.041   9.274  0.0009 -0.1129  0.1286
33445W        W37043  13.416  14.037   9.999  0.4147 -0.1592 -0.4159
33446W        W37044  10.388   4.145   9.246  0.2243 -0.4159 -0.0310
33447W        W37045  15.399   7.184   3.433  0.0528  0.1811  0.2060
33448W        W37046   7.849  12.538   6.705  0.1494 -0.0475 -0.0220
33449W        W37047   5.346   6.747  10.988 -0.0432 -0.1890 -0.1754
33450W        W37048   0.098  13.426  10.787  0.3412  0.2598 -0.0724
33451W        W37049  12.723  11.772  16.085 -0.2430 -0.2684  0.2181
33452W        W37050   4.793   6.932   9.519 -0.0954 -0.0685 -0.0950
33453W        W37051   2.764  14.870  14.588 -0.0058 -0.1968  0.0201
33454W        W37052   1.031   5.619   8.216  0.0950  0.0766  0.1469
33455W        W37053   2.702   0.605  13.215  0.0089  0.0544  0.2631
33456W        W37054   5.988  14.124   8.871 -0.0516 -0.0358 -0.0090
33457W        W37055   4.454   3.686   0.062 -0.0533  0.1372  0.0848
33458W        W37056   7.181  11.721  16.255 -0.1097  0.0005  0.1572
33459W        W37057   3.628   1.717  10.953  0.0748 -0.0239  0.2445
33460W        W37058  16.292   5.401  16.187 -0.0287  0.3987 -0.0914
33461W        W37059  11.024   0.991  11.866  0.3191 -0.0437  0.0450
33462W        W37060   7.666  15.893  10.468 -0.1677 -0.1831  0.0914
33463W        W37061  12.748   1.030  11.331 -0.1650  0.0921  0.0486
33464W        W37062   2.304   7.578   7.991 -0.0809 -0.1468 -0.0144
33465W        W37063   3.043   5.150  11.886 -0.0976  0.0976 -0.1148
33466W        W37064   3.170   5.686  10.114 -0.0776  0.1785  0.0578
33467W        W37065   4.830   8.826  16.248  0.0777 -0.0695 -0.1726
33468W        W37066  10.059  15.698   5.088  0.2119 -0.2815  0.0013
33469W        W37067  14.229   7.474  12.916 -0.2831 -0.1594 -0.3350
33470W        W37068   7.519  11.024   2.956 -0.1567  0.3483 -0.0432
33471W        W37069   6.172  14.400   1.701  0.0182  0.0747  0.0511
33472W        W37070  10.263  14.335   3.323 -0.0611  0.2087  0.0710
33473W        W37071  11.864   2.785  10.833  0.0301  0.0457  0.0952
33474W        W37072   1.780   8.264  15.301  0.3351  0.0491  0.1905
33475W        W37073  13.560   8.193   0.397 -0.1211 -0.1206 -0.1446
33476W        W37074  12.214   4.292  11.188  0.0700 -0.0476  0.0482
33477W        W37075  14.306  11.357   1.102  0.1273  0.4212 -0.3464
33478W        W37076   9.833  16.148  13.674 -0.0119  0.1046 -0.1047
33479W        W37077   3.325   3.618   6.276 -0.1522  0.1848 -0.1857
33480W        W37078   1.038  14.741  14.795  0.0034 -0.0243  0.1308
33481W        W37079   7.252   6.007  14.689 -0.1247  0.0588 -0.4148
33482W        W37080   0.790  12.076   8.655 -0.1023  0.1370  0.0375
33483W        W37081   9.376  10.828  14.991 -0.1305 -0.0779  0.2255
33484W        W37082   2.795   4.532   2.633  0.0853  0.4550 -0.1431
33485W        W37083   1.992   2.964   0.378  0.0161 -0.2396 -0.1066
33486W        W37084  12.922  15.558   8.205 -0.4613  0.0240  0.0563
33487W        W37085   1.479   2.370   6.192  0.2165 -0.0651  0.4088
33488W        W37086   3.162   1.149   1.551 -0.2349 -0.2010  0.3527
33489W        W37087   8.443  10.065   4.019  0.0283 -0.1179  0.1201
33490W        W37088  13.727   1.665  14.643  0.0266 -0.0823  0.2600
33491W        W37089   4.913   1.440  16.085  0.0150 -0.0370  0.3980
33492W        W37090   5.010  13.716  13.656 -0.2659 -0.1210  0.2695
33493W        W37091  11.955  13.780   6.312  0.1895 -0.1999  0.0272
33494W        W37092  15.081   1.548   4.041  0.3641  0.0061 -0.0961
33495W        W37093   1.077  13.387  15.950  0.0286  0.1590 -0.4111
33496W        W37094  12.488   3.976  10.177 -0.3758  0.0527  0.1943
33497W        W37095  12.274  14.986  15.450  0.1402 -0.1718 -0.2337
33498W        W37096  12.674  14.813  15.821  0.0546  0.0943 -0.1067
33499W        W37097   5.596   6.317   1.950 -0.5928 -0.1309 -0.1243
33500W        W37098   6.543   2.140   4.815 -0.0520 -0.0368  0.2237
33501W        W37099   1.317  10.905  10.911 -0.0765 -0.2612  0.2628
33502W        W37100  16.114  15.908   7.109 -0.3147 -0.1162  0.0572
33503W        W37101  11.428  13.478  15.595 -0.0495 -0.0360  0.0506
33504W        W37102   3.690  12.399  11.650 -0.0091 -0.2489  0.1894
33505W        W37103   5.948   4.959  11.250 -0.2177 -0.3954 -0.4311
33506W        W37104   9.816   0.596   8.867  0.1966 -0.3421 -0.0752
33507W        W37105  12.198   8.767   8.098  0.0667 -0.0465 -0.0661
33508W        W37106   4.704  15.977   0.173 -0.1490  0.0612  0.0061
33509W        W37107  15.882   0.227   2.515  0.0970 -0.2517 -0.1512
33510W        W37108  13.968   2.911  12.839 -0.1768 -0.2886  0.1452
33511W        W37109   1.932   2.626   6.198  0.0048 -0.1737  0.0248
33512W        W37110   3.878  15.236   5.540 -0.1338  0.0268  0.2748
33513W        W37111   1.159   0.749   1.775  0.0831  0.0903  0.2360
33514W        W37112   1.939  14.378  15.012  0.2316 -0.0719  0.0952
33515W        W37113  10.173  11.691   3.318  0.0666  0.0299 -0.2679
33516W        W37114   2.857   8.894  14.250  0.1048  0.0721 -0.1250
33517W        W37115   8.357  15.391  10.597  0.1696 -0.2136  0.1006
33518W        W37116   5.782  15.873  13.624 -0.0549  0.0278 -0.1567
33519W        W37117   7.641   4.153   4.665 -0.0229  0.1972  0.0411
33520W        W37118  12.466   0.890   9.444  0.0303  0.0596 -0.2403
33521W        W37119   1.009   2.050  14.967 -0.0812 -0.0243  0.4129
33522W        W37120   4.320  16.086  15.352 -0.1288  0.2617  0.0600
33523W        W37121   3.052   3.367   3.835  0.2012  0.0834 -0.0270
33524W        W37122   3.854  12.166   9.515  0.0125  0.1666 -0.2440
33525W        W37123   6.416   1.610   9.370 -0.3474  0.0755  0.0444
33526W        W37124   2.662   8.533   4.551  0.2578  0.0706  0.0316
33527W        W37125   1.408   1.741  15.054  0.0873 -0.0452 -0.1107
33528W        W37126   1.633  14.640   7.214 -0.2410  0.1607 -0.1299
33529W        W37127   4.594  14.302   9.922 -0.1065  0.0039  0.3388
33530W        W37128   7.692   8.730   4.177 -0.2513  0.1762 -0.2134
33531W        W37129   5.125  13.468  10.696  0.1357  0.1458  0.1603
33532W        W37130   1.749   7.403   6.083  0.0213 -0.1491 -0.0954
33533W        W37131   3.666  12.768  10.120  0.1402  0.0657  0.1531
33534W        W37132  14.678  15.500   5.104 -0.1336  0.2002  0.2012
33535W        W37133   9.770   6.488   3.133 -0.3065 -0.0299  0.1577
33536W        W37134   1.796   4.139   9.315 -0.0896 -0.2204 -0.0123
33537W        W37135  12.046  13.407  14.485  0.0569  0.1470 -0.1547
33538W        W37136  10.124  10.881  12.824  0.3075 -0.1248 -0.0749
33539W        W37137   2.398   3.315  12.382 -0.1170  0.0264  0.2794
33540W        W37138   2.838  12.684   0.719  0.2289 -0.0713 -0.1557
33541W        W37139  11.932   1.037   7.891 -0.0709  0.3204 -0.0979
33542W        W37140   1.352  16.059   0.039 -0.0364 -0.2521  0.0537
33543W        W37141   3.406   4.857  11.034 -0.1370 -0.1536 -0.1263
33544W        W37142   3.412   3.264  10.959 -0.0768 -0.2630  0.0729
33545W        W37143  16.332  14.719   9.853 -0.0472 -0.2497 -0.1442
33546W        W37144  15.959   5.516   8.348  0.1817  0.0258 -0.2922
33547W        W37145  12.465  10.734   2.816  0.1673  0.2566 -0.0346
33548W        W37146   9.399  14.540   8.886  0.0183 -0.0275  0.1339
33549W        W37147   1.565  12.986   8.769  0.0002  0.0939 -0.0416
33550W        W37148  14.408   6.089  10.853  0.2669  0.2614  0.2667
33551W        W37149   2.583  11.318   3.299 -0.0046 -0.2216 -0.0413
33552W        W37150  10.034  15.180   8.194  0.0314  0.2411  0.1872
33553W        W37151  12.170   9.501  12.436 -0.0307 -0.2369  0.0301
33554W        W37152  10.433   3.879   2.163  0.0950  0.4509  0.0610
33555W        W37153   2.201  10.072   2.962 -0.1130  0.1419  0.1623
33556W        W37154   9.095  10.681   0.748  0.0595 -0.2774  0.0667
33557W        W37155  13.739   3.325   3.676  0.0403 -0.1252  0.0620
33558W        W37156   3.674   6.314  13.170 -0.1450  0.0417  0.1874
33559W        W37157   0.792   9.715   9.077  0.2878 -0.1460  0.0586
33560W        W37158  15.777   0.413   3.308 -0.1138 -0.0981 -0.1591
33561W        W37159  10.304   3.595   5.141  0.1210  0.1516 -0.0118
33562W        W37160   8.699   9.309   7.597 -0.3333  0.1946  0.0650
33563W        W37161   8.514   8.107  12.546  0.1214 -0.1449 -0.2904
33564W        W37162   3.463  13.250   4.963 -0.0347  0.3677  0.1370
33565W        W37163   9.341   0.211  10.868 -0.1246  0.1163 -0.0088
33566W        W37164  15.040  13.235  15.049  0.1276  0.0108  0.1219
33567W        W37165  12.248   8.488   1.868  0.2109 -0.2627 -0.3249
33568W        W37166  12.105   5.435  15.669  0.0420  0.2420 -0.1676
33569W        W37167   4.864   7.215   0.096  0.2279 -0.0754 -0.4297
33570W        W37168  14.472  12.931   6.381 -0.1222  0.0943 -0.1607
33571W        W37169   6.197  16.215   8.227 -0.2387  0.2297 -0.1115
33572W        W37170  15.821  14.307   7.347 -0.2418 -0.2350  0.0597
33573W        W37171   8.115   1.772  12.875 -0.0236  0.1791 -0.0143
33574W        W37172  14.064   8.295   3.531  0.1996 -0.2029  0.0727
33575W        W37173   2.640  13.316   7.675 -0.2596  0.2380  0.2557
33576W        W37174   3.401   2.016  10.600  0.0704 -0.1028  0.2132
33577W        W37175   6.215   0.286   7.341  0.2709 -0.0351  0.2388
33578W        W37176   3.469   4.596   8.364 -0.3244 -0.1700 -0.1360
33579W        W37177   9.210  11.324   1.480  0.1850  0.1346 -0.1674
33580W        W37178  13.909  12.920   0.402 -0.0128 -0.2322 -0.1262
33581W        W37179   2.021   9.859   0.033  0.2048  0.0062  0.1219
33582W        W37180   8.184  11.804  13.646  0.0396 -0.2142 -0.0559
33583W        W37181   1.210   3.371   9.365  0.1120  0.1782 -0.1571
33584W        W37182   1.043  13.825  14.530 -0.0317  0.1314 -0.0326
33585W        W37183   9.543  16.102  11.910 -0.2279 -0.0988  0.0560
33586W        W37184  14.171   4.120  11.424 -0.2655 -0.2289  0.2810
33587W        W37185   6.144   0.963  14.071 -0.1434 -0.0615 -0.2482
33588W        W37186   0.064  12.490  12.731  0.3828  0.0931  0.1206
33589W        W37187  16.243   2.188   5.556 -0.1218 -0.0784 -0.2943
33590W        W37188   1.513  15.897  12.789  0.1984 -0.0127 -0.1692
33591W        W37189   3.204   8.564  10.745  0.0149 -0.0936 -0.1863
33592W        W37190   7.055  11.074   5.180 -0.1512 -0.1470 -0.0992
33593W        W37191   6.459   2.582   9.571 -0.0209  0.0512 -0.3148
33594W        W37192   3.687  11.329  14.621 -0.1606  0.3050  0.3202
33595W        W37193   8.681  11.039  11.975  0.1818 -0.3152  0.0474
33596W        W37194  16.223  10.047   9.993  0.1181  0.2192 -0.3224
33597W        W37195   6.771   6.894   4.624 -0.3502 -0.0739  0.1762
33598W        W37196  12.469   6.301  12.296 -0.0613 -0.1412 -0.0018
33599W        W37197  16.301   5.495  11.229  0.0853  0.2626  0.3555
33600W        W37198   4.797   3.736  11.246  0.0071 -0.2334 -0.1176
33601W        W37199  13.235   3.969  12.193  0.0512 -0.1968  0.2504
33602W        W37200   7.859   1.927   5.996  0.0424 -0.0391 -0.1025
33603W        W37201   5.070  15.494   1.126  0.1705 -0.2125 -0.1714
33604W        W37202   8.717  13.403   6.289  0.1172  0.2758  0.0832
33605W        W37203   2.815  10.180  14.819  0.0493 -0.1743  0.0751
33606W        W37204   0.483   8.321   2.992  0.3037 -0.2478 -0.1956
33607W        W37205   8.602   1.966   3.270 -0.1717  0.1513  0.0674
33608W        W37206   8.785  13.917   6.139 -0.1209  0.0469  0.3426
33609W        W37207   2.324  14.995  13.512  0.4985 -0.1450 -0.0111
33610W        W37208  11.515   3.698   3.722  0.0539 -0.0083  0.1503
33611W        W37209  13.541   7.775   8.991  0.1306 -0.1820 -0.2708
33612W        W37210  14.027   9.547  11.952  0.0503 -0.2822  0.0650
33613W        W37211   7.688  13.784   8.311  0.0200 -0.0763  0.1044
33614W        W37212   2.741   2.245   9.619  0.2004  0.0383 -0.0026
33615W        W37213   7.355   5.978   0.906  0.0122 -0.1161  0.1432
33616W        W37214   0.169  10.765  13.137  0.0922  0.0232 -0.0037
33617W        W37215   2.949   3.272  10.564 -0.0817  0.2988  0.3305
33618W        W37216  15.800  14.353   4.788  0.0206  0.1066  0.0552
33619W        W37217   7.233   0.436  14.740  0.1265  0.0575 -0.3883
33620W        W37218   7.288  14.589   5.597 -0.0355  0.2326 -0.2053
33621W        W37219   3.119  14.829   1.053 -0.1761  0.3069 -0.0087
33622W        W37220  11.071   3.540   1.002 -0.0928 -0.0370  0.0649
33623W        W37221   8.148   3.644  13.687 -0.0353  0.1042  0.1023
33624W        W37222   1.956   9.940  15.932  0.2004 -0.2326 -0.0850
33625W        W37223   5.622   1.218  10.340  0.0834  0.0745 -0.0718
33626W        W37224  11.711   1.634   8.816 -0.1768 -0.0633  0.0514
33627W        W37225   6.065  14.129  11.773  0.1714  0.2525  0.0691
33628W        W37226   8.143   3.116  12.476  0.0832 -0.0084  0.2153
33629W        W37227  11.225   0.032   9.888  0.1967 -0.1690  0.2937
33630W        W37228   7.938   7.564  11.657 -0.0947 -0.2001  0.3887
33631W        W37229  13.665  11.713  12.767  0.1661  0.1664 -0.0118
33632W        W37230  14.738   1.863  10.755 -0.0402 -0.1277  0.3042
33633W        W37231  11.713   4.262   8.334 -0.2993 -0.1503 -0.1520
33634W        W37232   3.142   2.519   8.649 -0.1230 -0.2279 -0.3738
33635W        W37233   0.672  14.411  13.784 -0.0346  0.0331  0.0488
33636W        W37234   8.324   7.428  10.781 -0.3792  0.0412  0.0594
33637W        W37235  10.105  10.874   5.625 -0.0035 -0.0856  0.2021
33638W        W37236   1.649   3.282   2.377  0.0892 -0.0823 -0.1862
33639W        W37237  15.415   4.210   5.177 -0.0176  0.1074 -0.1217
33640W        W37238   6.620   6.986   8.875  0.2726 -0.1666  0.0543
33641W        W37239  13.099   1.535   5.399 -0.1370  0.1325 -0.1064
33642W        W37240  11.099  12.042  10.894  0.0489  0.2333  0.3274
33643W        W37241   5.943  10.270  14.111 -0.0445  0.1697 -0.1377
33644W        W37242  11.978   8.859  15.956  0.0163  0.0025  0.0953
33645W        W37243  10.526  16.082  13.737  0.2142 -0.2261 -0.1040
33646W        W37244  12.595  11.423   7.211  0.2917  0.0192  0.0301
33647W        W37245  15.601   2.333   3.198  0.0158  0.0158 -0.0231
33648W        W37246   3.149   1.414   7.658  0.1029  0.0521 -0.0101
33649W        W37247   1.251  10.885   3.274 -0.1099  0.1201  0.2229
33650W        W37248  14.843   0.089   1.669  0.2711 -0.0754  0.0953
33651W        W37249   8.966  11.291   9.651 -0.1178 -0.1292 -0.0054
33652W        W37250   3.170   6.455  15.611  0.1731 -0.0342  0.0481
33653W        W37251  13.276   4.349   7.223 -0.1639 -0.1210  0.3067
33654W        W37252   1.043  16.234  10.962 -0.3228  0.0036 -0.0252
33655W        W37253  16.286   5.057  14.550  0.0624  0.1046 -0.1605
33656W        W37254   4.690   1.059  11.879 -0.0380  0.1055 -0.0197
33657W        W37255  15.420  13.757   5.023  0.0060  0.0619  0.0932
33658W        W37256  11.518  11.254  13.941  0.1388  0.1838 -0.2761
33659W        W37257   9.148   0.175   5.694  0.3435  0.0466  0.1988
33660W        W37258  10.801  11.105  12.234  0.0529  0.1734 -0.0153
33661W        W37259   7.712   0.113  10.508  0.1900 -0.0586  0.1672
33662W        W37260   6.354   3.548   0.800  0.0336  0.0377 -0.0787
33663W        W37261   4.710   8.565  15.787  0.2155 -0.1212 -0.1125
33664W        W37262   0.641   8.075  16.204  0.1774  0.0182  0.1310
33665W        W37263  13.284  10.778  15.981 -0.0742  0.2873  0.3883
33666W        W37264  10.736   4.778   5.458 -0.1510 -0.3086  0.0351
33667W        W37265   4.702   5.332   2.837  0.1603 -0.1208  0.2472
33668W        W37266   0.355   1.423   3.610 -0.0686  0.1420  0.2367
33669W        W37267   9.385  15.974   9.759  0.2120  0.0738 -0.0369
33670W        W37268  13.895   4.467  15.069 -0.0193  0.0019  0.1466
33671W        W37269  12.169   6.568   1.694 -0.1156  0.1440  0.0172
33672W        W37270   6.322  13.862   9.050 -0.2010  0.1758 -0.0556
33673W        W37271   3.684   6.925   4.545  0.0268 -0.0337  0.2142
33674W        W37272   9.736   0.835  13.799  0.0303  0.2208 -0.0740
33675W        W37273   7.516   1.042  13.891 -0.1084  0.0011  0.1569
33676W        W37274   1.043   8.633   2.279 -0.2562 -0.2121 -0.0353
33677W        W37275   5.370   9.228   2.387 -0.0939 -0.0674 -0.1526
33678W        W37276  14.408   3.327   6.296 -0.1652 -0.1265  0.0552
33679W        W37277  12.784   1.763   5.106 -0.1975  0.0883  0.2192
33680W        W37278   4.360   9.224  14.734 -0.1855 -0.0594  0.4520
33681W        W37279   4.540  14.809  15.901 -0.0824  0.0465  0.0536
33682W        W37280   9.672   5.421  13.260 -0.0413 -0.2448  0.1212
33683W        W37281   3.953   5.525   9.360  0.2507  0.0663  0.0231
33684W        W37282   6.042  11.730  13.783  0.6936 -0.2660 -0.0741
33685W        W37283  11.516  13.813   5.107 -0.1008 -0.0395 -0.2133
33686W        W37284   1.388   6.315   8.190 -0.0087 -0.0267  0.3203
33687W        W37285  16.022  10.314   5.599 -0.0613  0.0003  0.2300
33688W        W37286   8.133   7.778  12.707 -0.0458 -0.1259  0.2201
33689W        W37287   5.540   7.707   9.557  0.0459  0.0711 -0.0907
33690W        W37288  10.452   9.246  12.719  0.1236 -0.1381  0.3690
33691W        W37289   1.916   8.989   3.810 -0.2077 -0.2465  0.5773
33692W        W37290  13.194   9.123   9.825 -0.0130 -0.0541  0.0229
33693W        W37291   2.424   1.001   9.812 -0.1427 -0.0123  0.2055
33694W        W37292  14.045   8.850   3.415  0.0965 -0.0981  0.1475
33695W        W37293   5.450  14.494   8.068 -0.1744  0.0040  0.0242
33696W        W37294   8.506   2.024  13.238 -0.0377  0.1232 -0.1209
33697W        W37295  12.899  16.166   3.199 -0.1627  0.1181  0.0558
33698W        W37296   5.294   1.046   5.457 -0.3021 -0.0230  0.2062
33699W        W37297   8.956   3.041  11.353  0.2764  0.0183 -0.2343
33700W        W37298  11.669  14.597   7.855  0.0051 -0.1819  0.2730
33701W        W37299  10.687   6.865   8.662  0.1608  0.0307 -0.1893
33702W        W37300  14.530   3.153  11.509  0.0015  0.1816 -0.1256
33703W        W37301  15.517   3.795   3.920  0.1474 -0.1678  0.0707
33704W        W37302   2.057   9.086   6.729 -0.0192 -0.1099  0.0128
33705W        W37303  12.897  16.180  11.319  0.2000 -0.3594 -0.1109
33706W        W37304   1.440   1.690   6.905 -0.2163  0.2773  0.1672
33707W        W37305   7.678  14.392   5.973  0.3180  0.2512 -0.1568
33708W        W37306  11.341  12.870   1.065 -0.0240  0.1884  0.1031
33709W        W37307   8.513   1.609   9.358  0.1763  0.1246  0.2319
33710W        W37308   2.905   9.695  11.698 -0.0707  0.0063 -0.1908
33711W        W37309   7.127   1.576  12.068  0.0052 -0.0875 -0.0487
33712W        W37310  14.353   0.097   1.747 -0.2244 -0.0718 -0.1012
33713W        W37311  15.347   1.330   5.482  0.0861 -0.4196  0.0876
33714W        W37312   5.225   2.207  10.388  0.1411 -0.1290 -0.0280
33715W        W37313  10.818   8.960  14.763 -0.1928 -0.2607 -0.0606
33716W        W37314  13.960   4.693  13.450 -0.1042  0.1646  0.1143
33717W        W37315   5.176  13.045  10.410 -0.3111 -0.0880  0.0719
33718W        W37316   5.866   6.176   9.518 -0.2794  0.1255 -0.1026
33719W        W37317   9.359  12.292   3.581 -0.0348  0.0384  0.1051
33720W        W37318  15.537   3.071   2.441 -0.2805 -0.0591 -0.4135
33721W        W37319  13.658  11.491   5.926 -0.1402  0.1215 -0.0507
33722W        W37320  11.072   1.549  16.193  0.0082  0.3232  0.2873
33723W        W37321   0.866   3.721  15.347  0.1477 -0.2367  0.1169
33724W        W37322   2.517   7.107  12.888 -0.1501  0.1721 -0.1616
33725W        W37323  15.979   0.557   4.766  0.0552 -0.0440  0.0916
33726W        W37324   4.600   7.585  13.366  0.5636  0.0416  0.2704
33727W        W37325   4.599  10.530   1.449 -0.1479 -0.1415  0.0279
33728W        W37326  10.835   7.235   0.516 -0.0059  0.1754  0.1740
33729W        W37327   3.308   6.384  16.263 -0.2923 -0.1947 -0.2523
33730W        W37328  15.866  11.048   5.018 -0.2970 -0.0397  0.1738
33731W        W37329   4.084   3.580   3.168 -0.1709 -0.0674  0.0988
33732W        W37330  11.392  12.025   5.981  0.0754  0.0038  0.0416
33733W        W37331   5.723   8.442   8.285 -0.0962 -0.0429  0.0394
33734W        W37332  12.017   7.610  12.989  0.0210  0.0174 -0.1612
33735W        W37333  14.388  15.346   8.441  0.2554 -0.1849 -0.0451
33736W        W37334  13.674   0.566   2.082  0.1914  0.0182  0.1236
33737W        W37335   4.929  15.362  12.936 -0.4447  0.2167  0.3087
33738W        W37336  11.628  15.129   7.639  0.2826  0.2620 -0.1807
33739W        W37337   7.445   8.390  11.509 -0.0145 -0.0996  0.2915
33740W        W37338   7.975   0.002   2.431 -0.1648  0.1465  0.2070
33741W        W37339   9.584   4.038   1.740  0.1409  0.0947  0.3273
33742W        W37340   8.211  11.093   7.585  0.2741 -0.1433  0.0511
33743W        W37341  12.838   2.063   8.378 -0.1324  0.0263 -0.2123
33744W        W37342  13.106   0.252   1.638 -0.2985  0.2320 -0.2032
33745W        W37343   1.938  10.508   3.689 -0.0940 -0.2465  0.0999
33746W        W37344  12.660   8.866   8.094 -0.3690  0.1531 -0.1705
33747W        W37345   4.792  12.371   3.286 -0.0937 -0.1565 -0.1815
33748W        W37346   1.460  16.036   8.629  0.0687 -0.3077 -0.0260
33749W        W37347  10.331   1.793   9.863  0.2724  0.1305 -0.2628
33750W        W37348   8.232   3.859  14.751  0.5172 -0.2886 -0.0112
33751W        W37349   5.902   1.026  14.527 -0.0168  0.1419 -0.2502
33752W        W37350  12.418   2.764  11.099 -0.0248 -0.1183 -0.1869
33753W        W37351   1.533   4.894   8.209 -0.1332 -0.2234  0.2699
33754W        W37352  15.698   3.473  10.451 -0.0777 -0.0145  0.3703
33755W        W37353  13.376   0.541  12.735  0.1915  0.0093 -0.1672
33756W        W37354   9.677  15.680   7.633  0.0062 -0.0668 -0.1070
33757W        W37355   4.472   6.929   4.128  0.2897  0.0891 -0.0449
33758W        W37356  14.581   5.988  13.552  0.2223 -0.4006 -0.0471
33759W        W37357   3.023   1.746  16.372 -0.2007  0.2022 -0.1872
33760W        W37358  15.412   4.465  11.213  0.4047  0.1047  0.0957
33761W        W37359   5.297  15.077   5.758 -0.1011 -0.2408  0.0052
33762W        W37360  12.293   5.720   7.845 -0.2299 -0.1774 -0.0924
33763W        W37361   0.802  11.113   9.015  0.3442  0.1234  0.0413
33764W        W37362  14.240  10.524  10.933  0.1776 -0.5210 -0.1542
33765W        W37363   3.263   7.345   7.769  0.0170 -0.0691  0.0839
33766W        W37364   4.515  12.116   5.413  0.1529  0.1850 -0.0705
33767W        W37365  15.420  14.390   7.953 -0.0539 -0.1564 -0.0672
33768W        W37366  14.218  11.292  13.635 -0.3161  0.2037 -0.1649
33769W        W37367   4.712   2.686  10.743  0.0892  0.0441 -0.1491
33770W        W37368   1.556  13.632  15.240 -0.0820 -0.4204 -0.1565
33771W        W37369   7.988  11.060   1.731 -0.1283  0.0175  0.3288
33772W        W37370   0.337   4.956  10.126 -0.0963  0.0225  0.1477
33773W        W37371   8.973  13.096   7.092  0.3392  0.1522 -0.4024
33774W        W37372   2.819  11.382  12.665 -0.2478  0.0432  0.2537
33775W        W37373   7.545  14.478  12.781  0.1641 -0.0957  0.3561
33776W        W37374  13.181   5.215   3.125  0.2241 -0.1539 -0.2047
33777W        W37375  15.864  12.559   1.619 -0.1549 -0.0008  0.1275
33778W        W37376   7.925  13.183   4.603 -0.3568 -0.1389  0.1446
33779W        W37377   4.545  13.899   3.772 -0.3806 -0.2281 -0.1809
33780W        W37378  16.065   1.941   0.042  0.1207  0.2203 -0.0863
33781W        W37379  14.013   5.395  10.976  0.2213 -0.0510  0.1776
33782W        W37380  10.961   8.196   9.922  0.5356 -0.1027  0.1751
33783W        W37381   9.090   0.141   4.132 -0.1222 -0.4400  0.3471
33784W        W37382   7.441   7.641   2.136  0.4493  0.0581 -0.0304
33785W        W37383   9.261   1.296  12.241  0.1065  0.0127  0.1272
33786W        W37384  13.578  14.042   4.627 -0.2076  0.1971 -0.2621
33787W        W37385   1.932  11.508   8.146  0.0775  0.2533 -0.2510
33788W        W37386   6.314   1.479  12.392 -0.1633 -0.2414 -0.1982
33789W        W37387  12.511   2.660   6.773 -0.0770  0.0370 -0.1322
33790W        W37388  16.161   3.603   7.519  0.1164 -0.1809 -0.0070
33791W        W37389  15.505  15.826   4.384 -0.2464 -0.1426 -0.0867
33792W        W37390   8.023  11.601   0.945  0.1628  0.1279  0.1868
33793W        W37391   6.976  11.934   1.048 -0.1755  0.3522 -0.1424
33794W        W37392   3.061   6.752  14.622 -0.0241 -0.2397  0.0899
33795W        W37393  13.727   0.493   5.286 -0.0077  0.2029 -0.3045
33796W        W37394   8.265   6.665   9.478  0.2853  0.1209  0.0336
33797W        W37395  15.219  10.340   8.430  0.0799 -0.2093 -0.3004
33798W        W37396  15.280   7.663   6.218  0.0976 -0.0064  0.2405
33799W        W37397   8.800  16.181   3.797  0.0770  0.2435 -0.3258
33800W        W37398   7.895   7.705  10.555  0.1558  0.1031  0.0045
33801W        W37399  11.945   4.332   4.273  0.0292  0.2795  0.2126
33802W        W37400  11.388   3.369   6.416 -0.3318  0.2333 -0.2593
33803W        W37401  11.279  13.772  12.783 -0.1007 -0.0406  0.0125
33804W        W37402   9.821  14.945   0.474 -0.1205  0.4313  0.0992
33805W        W37403  12.948  13.863  12.454 -0.0267 -0.0238 -0.0255
33806W        W37404   3.632   4.818   8.825  0.0233 -0.0149 -0.2729
33807W        W37405   5.534   4.743   3.422  0.0095  0.0502 -0.1149
33808W        W37406   0.475   5.839   0.823  0.0500 -0.3219  0.0275
33809W        W37407  12.563  14.053  15.294 -0.2631 -0.0399  0.1737
33810W        W37408   6.007   1.982   0.105 -0.1255  0.2623 -0.0316
33811W        W37409  13.789  12.433   0.668 -0.1122  0.1227 -0.1625
33812W        W37410  11.124  14.390   1.400 -0.0629 -0.2951  0.0010
33813W        W37411   4.556   9.583  13.933  0.0482 -0.0503  0.1118
33814W        W37412  14.688  14.230   7.180 -0.0994  0.1310  0.0847
33815W        W37413  13.736  11.558   2.321 -0.3888 -0.0937 -0.3106
33816W        W37414  10.928   6.897   1.473  0.0282 -0.0669  0.4757
33817W        W37415  15.736   5.467   7.140 -0.0820  0.3763  0.0830
33818W        W37416  14.109   4.744   0.642  0.1739 -0.3088  0.3946
33819W        W37417   0.301  11.204  12.877  0.1666  0.1608  0.0020
33820W        W37418   2.069  15.100   9.165 -0.0493  0.0241  0.0819
33821W        W37419  10.361   1.351   3.775  0.2334  0.2071 -0.2357
33822W        W37420   1.462   0.435   5.239  0.3047 -0.0036  0.1965
33823W        W37421   4.577   4.454  12.310  0.1564  0.1925  0.0329
33824W        W37422   2.428   9.651   4.541  0.0913  0.1916 -0.2506
33825W        W37423   9.309  12.360   6.680  0.1246 -0.0157 -0.0919
33826W        W37424   7.641   6.718   4.015 -0.0279  0.1252 -0.1527
33827W        W37425   1.496   1.302   9.242  0.2560 -0.0734  0.0114
33828W        W37426   7.371   8.597   3.357 -0.1109  0.0712 -0.2784
33829W        W37427  12.700   5.891   2.680  0.1856 -0.2346  0.1862
33830W        W37428   2.579  13.507   3.171 -0.3251 -0.1691 -0.0674
33831W        W37429   1.657  13.804   0.371  0.1687  0.0635  0.0394
33832W        W37430   9.833   6.656   7.564  0.1328 -0.0532 -0.0172
33833W        W37431   9.148   5.513  13.333  0.0254 -0.0504  0.0323
33834W        W37432  10.297  11.839  11.443 -0.0687 -0.4221 -0.5073
33835W        W37433   8.704   0.651  16.204 -0.0525 -0.3422  0.0406
33836W        W37434   4.503   8.247   9.932 -0.3678  0.0748  0.0196
33837W        W37435   1.378   4.542  14.671 -0.1417 -0.1058  0.1908
33838W        W37436   6.662   6.476   9.136 -0.0516  0.2513  0.1958
33839W        W37437  14.851  12.402   1.923 -0.0361 -0.2450  0.3342
33840W        W37438  12.069   5.884  16.271  0.1231  0.0646 -0.2571
33841W        W37439   9.857   0.307  13.665 -0.2289  0.2640 -0.0973
33842W        W37440   2.818   9.430   8.785  0.1259  0.1616  0.0462
33843W        W37441   1.964   5.522   1.032  0.1450  0.1966 -0.0397
33844W        W37442  15.747  12.765   0.609  0.0120 -0.0859 -0.1230
33845W        W37443   0.617  13.259   4.971 -0.0224  0.2040 -0.0146
33846W        W37444   9.217  12.564  11.147 -0.1670 -0.2173 -0.0953
33847W        W37445   3.361  11.647   8.117 -0.1093 -0.2742  0.3253
33848W        W37446   3.647  11.212   7.378  0.3566  0.2390 -0.1738
33849W        W37447   5.351   7.773  15.371  0.2016  0.3185  0.0605
33850W        W37448  14.324  12.361  12.624 -0.0790  0.0644 -0.1692
33851W        W37449  13.143  10.009  11.752 -0.0931  0.0364 -0.0792
33852W        W37450   9.477   8.012   7.247  0.2874 -0.3511  0.0723
33853W        W37451   2.315  15.806   8.689  0.1243 -0.4069  0.1100
33854W        W37452   1.757   6.546   5.069 -0.2489 -0.0441 -0.2435
33855W        W37453   4.771   8.921  11.330  0.0671 -0.0478  0.0693
33856W        W37454  16.118  12.733   8.294  0.2156  0.0775 -0.1493
33857W        W37455  13.682   1.862   9.931  0.3421  0.2692 -0.1102
33858W        W37456   3.453   1.993  15.333 -0.2130 -0.0254  0.0519
33859W        W37457  10.434  10.550  15.398  0.3035  0.2613 -0.2467
33860W        W37458  11.172   0.880   9.900 -0.1791  0.1384 -0.1908
33861W        W37459  10.879  15.320  14.287 -0.0927  0.1913  0.2261
33862W        W37460  14.213  15.271   3.701  0.1062  0.0967 -0.1842
33863W        W37461   3.689   7.740   4.986 -0.1854 -0.1598 -0.2930
33864W        W37462  14.155  12.232   8.662  0.1223  0.3224  0.1300
33865W        W37463  10.883   9.681  11.530  0.3117 -0.0779  0.0147
33866W        W37464  12.138   2.664   7.624 -0.1501  0.0351  0.0284
33867W        W37465   0.855   8.274  14.818  0.0335  0.0577 -0.3419
33868W        W37466   3.855   9.011  10.280  0.0572 -0.3427  0.0599
33869W        W37467   9.140  14.496   2.657  0.2108 -0.1326 -0.1156
33870W        W37468   6.993   6.354   6.352  0.1507  0.4250  0.3507
33871W        W37469  12.877  12.791   9.932  0.1061 -0.0203  0.0209
33872W        W37470   6.811   3.640   0.501 -0.1111 -0.0218 -0.2040
33873W        W37471   8.071   7.602  16.272  0.0331 -0.2071 -0.0223
33874W        W37472   7.488  11.526  15.701 -0.0791 -0.0738 -0.0951
33875W        W37473   1.106  14.005  10.206  0.0184 -0.2422 -0.2320
33876W        W37474   7.643  15.751   7.675 -0.3110  0.0527  0.3316
33877W        W37475   4.174   4.671  15.305  0.2788 -0.0338  0.1345
33878W        W37476   8.271   9.290   0.028 -0.0037 -0.0931  0.0798
33879W        W37477  15.777  14.490  15.360 -0.1405  0.2043 -0.1237
33880W        W37478   4.767   4.670   2.833 -0.1990  0.1786  0.2775
33881W        W37479   7.366   3.222   9.319  0.1562  0.4196  0.0740
33882W        W37480  11.818  10.552  11.089  0.5571 -0.2179 -0.4350
33883W        W37481  11.888   0.618  11.593  0.0191  0.1049  0.0691
33884W        W37482  11.240   2.937  10.786  0.0053  0.0651 -0.0534
33885W        W37483   5.787  13.403   3.474 -0.1538 -0.1746 -0.1951
33886W        W37484  12.494   6.619  14.521 -0.0986 -0.0998  0.0256
33887W        W37485  13.950   0.178   4.750  0.1033  0.1071  0.1334
33888W        W37486  11.278  13.398   1.744  0.0232 -0.2787  0.0052
33889W        W37487  15.367   7.255  15.456 -0.0742  0.2291  0.0428
33890W        W37488  12.627   0.166   5.832  0.0491 -0.0765 -0.2075
33891W        W37489   5.239   1.759   4.196 -0.2792 -0.3005  0.0718
33892W        W37490   2.562   2.238   0.746  0.1536 -0.2074  0.2430
33893W        W37491   0.319  14.007  13.834  0.3069  0.0016  0.1028
33894W        W37492   5.715   1.105   0.065 -0.3153  0.0875  0.1470
33895W        W37493  10.291  10.106   0.838 -0.2689  0.0773  0.1385
33896W        W37494  13.296   0.682  14.432 -0.1264  0.1516  0.2241
33897W        W37495   6.995   5.547   5.366  0.0323  0.0426 -0.0467
33898W        W37496  11.929  12.534   9.819  0.1866  0.0302  0.2664
33899W        W37497  10.952  16.012   5.554  0.1187  0.0815  0.0848
33900W        W37498  10.870   4.917   1.386 -0.2316  0.0194  0.1883
33901W        W37499   2.558   3.169   2.034 -0.1874 -0.2431 -0.1760
33902W        W37500   4.790   5.714   4.938  0.4288 -0.0831  0.1356
33903W        W37501   8.136   5.462   6.062  0.0949 -0.0800 -0.2412
33904W        W37502   6.096  10.139   7.384  0.0040  0.1384 -0.0442
33905W        W37503  10.259  10.577  16.313  0.1435 -0.2036  0.0859
33906W        W37504   7.962   6.969   7.072  0.0888 -0.1126  0.0333
33907W        W37505  15.015   4.691  10.481 -0.1526  0.0455 -0.0784
33908W        W37506   3.160   2.232   7.348 -0.1216 -0.0226 -0.0146
33909W        W37507   5.545  12.464  13.989  0.0228 -0.3011  0.0452
33910W        W37508   9.238   3.340  11.638  0.0733 -0.3323  0.0310
33911W        W37509  14.027   1.353   0.945  0.0800 -0.0123  0.1408
33912W        W37510  13.805  11.059   3.148  0.1941 -0.2524 -0.0346
33913W        W37511  10.648   7.737  10.384  0.3551  0.1066  0.1182
33914W        W37512  14.420   7.266  10.222  0.0230 -0.0475  0.0536
33915W        W37513   6.528  12.362   9.968 -0.1535  0.2067 -0.0218
33916W        W37514  14.917   0.426  14.765  0.1266  0.1565  0.0017
33917W        W37515  11.361  14.882   0.508 -0.2268  0.3196 -0.0000
33918W        W37516   0.021   5.126   1.424  0.1844 -0.0267 -0.2088
33919W        W37517  14.147  13.826   3.628  0.4083  0.3177 -0.0604
33920W        W37518  13.918   6.358   5.035  0.0371 -0.0248 -0.0340
33921W        W37519   7.003   6.338   0.806  0.1243 -0.0120  0.0348
33922W        W37520  12.804  16.321   9.699 -0.0367  0.0163 -0.2161
33923W        W37521  13.837   4.344   9.482  0.0084  0.2328  0.0028
33924W        W37522   6.131   8.332   9.935 -0.2009 -0.1146 -0.0882
33925W        W37523   5.140   9.420  10.738 -0.0334 -0.1364  0.0144
33926W        W37524   6.118  16.076   4.832 -0.1828  0.1115  0.1711
33927W        W37525   5.146  12.880  14.896  0.2376  0.1086  0.1615
33928W        W37526   0.127   1.005   0.857 -0.0936 -0.0169  0.2873
33929W        W37527   2.597   0.236  10.444 -0.3333  0.2443 -0.0303
33930W        W37528  12.034   2.904   9.034 -0.3723 -0.0041 -0.2355
33931W        W37529   0.047   3.183   7.558 -0.2072  0.0074 -0.2556
33932W        W37530  13.249   2.517  10.003  0.1681  0.0990  0.1345
33933W        W37531   6.391   2.577  15.591 -0.3095  0.0941  0.1470
33934W        W37532   6.647   6.517  12.299  0.3048  0.2232  0.0052
33935W        W37533  11.131   8.632   0.214 -0.0383  0.0164  0.5605
33936W        W37534   2.604  10.966   0.235  0.2030 -0.1174  0.0329
33937W        W37535   8.862   1.464   9.014  0.2801 -0.2708 -0.0601
33938W        W37536  12.288  11.278   7.564 -0.0802  0.2667 -0.1061
33939W        W37537   9.571   9.740   1.758 -0.1249  0.1585 -0.2759
33940W        W37538  12.086  11.563   9.516  0.0568 -0.0969 -0.0881
33941W        W37539  11.231   9.508   7.296  0.1241  0.0093 -0.1886
33942W        W37540  12.485   2.370  14.234  0.1812  0.2967  0.2726
33943W        W37541  14.751   2.686   0.426 -0.2940  0.0940 -0.0471
33944W        W37542  15.893   7.433   0.259  0.2492 -0.2823  0.1886
33945W        W37543  10.689  13.645   4.605  0.3814  0.2348  0.1177
33946W        W37544  13.902  14.061  12.824 -0.2193  0.4988 -0.0850
33947W        W37545   5.123   8.649   2.019 -0.1457  0.1003  0.0889
33948W        W37546   8.943   0.205   1.284  0.0894  0.0288 -0.0254
33949W        W37547  15.887   3.597   2.659 -0.2650  0.1628 -0.0649
33950W        W37548  14.341   8.236   8.141  0.1473 -0.1369  0.2960
33951W        W37549   1.098   0.309   2.184  0.4673  0.2384  0.1543
33952W        W37550   8.572   2.047   9.998  0.0662  0.3168  0.0953
33953W        W37551   1.976   5.805   6.545 -0.1047 -0.1614 -0.1114
33954W        W37552   6.652  11.150  10.313 -0.1234  0.0425  0.0550
33955W        W37553  11.824   9.551  13.522 -0.1984  0.0301 -0.0739
33956W        W37554   3.040   3.068   1.311 -0.0504  0.0237 -0.3794
33957W        W37555  12.660   7.178   5.437  0.2827  0.1050 -0.1422
33958W        W37556  14.906   1.917   6.487  0.1519  0.0113 -0.0932
33959W        W37557   3.679  13.919  13.121  0.1318  0.0453  0.2402
33960W        W37558   6.332   9.790  12.964 -0.1852 -0.1514 -0.2195
33961W        W37559  16.303   7.279  10.128  0.0557  0.0373  0.3165
33962W        W37560   7.879   8.965  10.388 -0.3349 -0.0632 -0.6153
33963W        W37561  11.918   5.665  11.013  0.0209 -0.0405 -0.0176
33964W        W37562  13.862  15.722   2.698 -0.0261 -0.0359 -0.1236
33965W        W37563   4.662   4.655   6.525 -0.0982 -0.1386 -0.3909
33966W        W37564   4.959   9.565   5.851  0.0852 -0.0449 -0.3662
33967W        W37565  15.210   9.062  12.532  0.0922  0.0264  0.1420
33968W        W37566   7.598  12.614  16.298  0.0852  0.1143  0.2520
33969W        W37567   6.819   5.837  14.873 -0.0729 -0.2930 -0.1840
33970W        W37568   2.922  15.259   3.324  0.0441  0.0370  0.1475
33971W        W37569   5.945   2.742  14.839 -0.0178  0.1361  0.0037
33972W        W37570  13.714   8.831   9.314  0.1743 -0.4114  0.0997
33973W        W37571   2.136   0.686   8.502 -0.5294  0.3382 -0.0491
33974W        W37572   1.561  12.770   8.308 -0.0718 -0.1639  0.0234
33975W        W37573  11.314   1.889   7.293 -0.0938  0.2951 -0.0665
33976W        W37574  12.786   8.717   0.654  0.3364  0.2236  0.3560
33977W        W37575  15.817  13.044  11.614 -0.0901 -0.1219  0.1410
33978W        W37576   6.286   1.311  14.456  0.2430 -0.0665 -0.1720
33979W        W37577  14.267   8.403   9.450  0.0527  0.2469 -0.0377
33980W        W37578   5.138   7.132  16.025  0.3154  0.2027 -0.1557
33981W        W37579   1.595   8.060  10.019 -0.0043  0.0867  0.0002
33982W        W37580   0.181   2.827  11.368  0.2584  0.0423 -0.1560
33983W        W37581   8.725   5.345  15.847 -0.1387  0.0892  0.1618
33984W        W37582   5.794  14.255   9.301  0.0682  0.0957  0.0280
33985W        W37583   1.796  14.719   8.598 -0.0650  0.1786  0.0771
33986W        W37584  15.699   8.859   3.247  0.1652  0.0782 -0.0415
33987W        W37585  10.280   2.283  11.885  0.0370 -0.0373  0.0245
33988W        W37586   7.813   2.273  12.013  0.1478  0.0604 -0.2221
33989W        W37587  14.105  15.562   8.769 -0.3519  0.0684  0.2980
33990W        W37588  11.744   1.949  11.988  0.2862  0.2022 -0.0303
33991W        W37589   4.549   9.938   2.670 -0.2921  0.0771 -0.2605
33992W        W37590   6.809   6.619   7.525 -0.1050 -0.1497 -0.1086
33993W        W37591   2.828   7.282   4.952 -0.3728 -0.0458  0.1736
33994W        W37592   4.437  15.583  12.555  0.2537 -0.2395  0.1257
33995W        W37593   1.241   2.631   7.701 -0.0612  0.1177  0.1298
33996W        W37594  13.309  15.490  14.848 -0.1733 -0.0817 -0.0946
33997W        W37595   1.088   5.223   8.453 -0.2343  0.2164 -0.2141
33998W        W37596   7.536   5.467  12.690 -0.0553 -0.1576 -0.4651
33999W        W37597  13.052  10.416   4.691  0.0889 -0.0715  0.1320
34000W        W37598  13.698   3.615   9.173 -0.0989  0.0440  0.0261
34001W        W37599   6.817   6.103   7.273  0.1870 -0.1695  0.0488
34002W        W37600  13.141   8.390  11.394  0.2259 -0.0807  0.1889
34003W        W37601   2.228  11.395  14.289  0.0459 -0.0971  0.1385
34004W        W37602   3.252   4.173   0.135  0.1566 -0.0740  0.3427
34005W        W37603   5.449   0.235   4.465 -0.0167 -0.0359  0.0663
34006W        W37604   7.390  12.201   3.159  0.0511 -0.1626 -0.0011
34007W        W37605   2.289   8.021   3.716 -0.2874  0.1958  0.0014
34008W        W37606  11.211  15.396   6.343 -0.0993  0.0385 -0.0481
34009W        W37607   9.802   7.077   8.500 -0.1561 -0.2966  0.0512
34010W        W37608   9.173  13.577   8.636  0.3763  0.1395  0.6385
34011W        W37609   5.019  15.664  11.533  0.0148 -0.1567 -0.3239
34012W        W37610   6.652  10.514  13.454 -0.0063  0.2167 -0.1711
34013W        W37611   0.712  15.463   1.363  0.0426 -0.0158 -0.0389
34014W        W37612   9.379   3.470   4.836  0.0887  0.1110 -0.1937
34015W        W37613   5.622  14.055   3.768 -0.2511  0.1070  0.1034
34016W        W37614  10.477   4.617   9.072  0.1112 -0.1912  0.1026
34017W        W37615   0.513   3.904  15.696 -0.2085  0.3064  0.1794
34018W        W37616   7.453  11.193   7.952 -0.0602 -0.1869  0.0693
34019W        W37617   2.050   3.604  11.294  0.0305  0.0591  0.1543
34020W        W37618   6.542   4.507  10.108 -0.0103  0.0288  0.1853
34021W        W37619  10.891   2.869   2.091 -0.1347  0.0755  0.0868
34022W        W37620   8.215  11.309   6.612 -0.1340 -0.3860  0.0899
34023W        W37621  10.867  10.518   3.212 -0.0461 -0.3096  0.0561
34024W        W37622   0.604  16.086   0.091  0.0495  0.1037 -0.0768
34025W        W37623  14.323   2.644   4.973  0.0410  0.1194 -0.1588
34026W        W37624   4.884  14.862  12.935  0.1904  0.3447 -0.0987
34027W        W37625  13.142   1.669  13.954  0.1351  0.1617 -0.0301
34028W        W37626   3.647   7.142   6.230 -0.1052  0.1041  0.0828
34029W        W37627   0.067  11.467  15.349  0.5130 -0.2077  0.2596
34030W        W37628  13.662   1.995  15.191 -0.1518  0.0758  0.0459
34031W        W37629   9.417   7.653   3.919  0.2421  0.1015 -0.0716
34032W        W37630   2.209   1.984   7.001  0.1108 -0.0629  0.1368
34033W        W37631   4.401   5.190  13.301 -0.0770 -0.2858 -0.0020
34034W        W37632  11.962   3.444   7.741  0.2335 -0.1660  0.1879
34035W        W37633  14.557   0.990   6.810  0.0394 -0.0848 -0.1478
34036W        W37634   8.654  16.275  10.488  0.3125  0.0081  0.0061
34037W        W37635  13.457   3.373   9.623  0.2280  0.1037 -0.1128
34038W        W37636  13.509   0.490   0.866 -0.0939 -0.1682  0.2205
34039W        W37637   3.827  12.654   9.653 -0.2800  0.1055  0.1425
34040W        W37638  10.513  12.497  13.670 -0.1560  0.0120 -0.0162
34041W        W37639   7.721   7.545   9.807 -0.1601 -0.1902  0.2499
34042W        W37640   6.693   5.607   8.725 -0.1014  0.2098 -0.2376
34043W        W37641  15.437   5.002  10.881 -0.2605  0.2637  0.1359
34044W        W37642  13.458  15.207  15.586  0.0357 -0.0019 -0.2357
34045W        W37643   3.280  14.213  10.262 -0.3129 -0.0176  0.0911
34046W        W37644   7.220   4.424   4.720 -0.3639 -0.3808 -0.0254
34047W        W37645  15.704   2.609   6.822 -0.1143  0.1427 -0.2813
34048W        W37646  15.951   4.051   5.888  0.2953  0.1366 -0.2025
34049W        W37647   3.950   2.404   7.699 -0.2243  0.0168 -0.1003
34050W        W37648   1.407  14.868   1.227  0.2005 -0.1019 -0.1881
34051W        W37649  10.572   2.173  15.877 -0.2517  0.0010 -0.1655
34052W        W37650  10.677  13.657   5.816  0.2623 -0.0083  0.4298
34053W        W37651   5.892  11.677  16.078  0.0871 -0.2151  0.1430
34054W        W37652   4.213   8.767   4.592  0.1732  0.2623  0.0380
34055W        W37653  14.573  14.015  15.530  0.0762 -0.4052 -0.0759
34056W        W37654  13.720  12.414  11.607  0.1088  0.0174  0.0715
34057W        W37655   0.676   0.872   4.846 -0.1401 -0.0027  0.1144
34058W        W37656   6.672   7.528   0.103  0.0851 -0.2566  0.1711
34059W        W37657   9.471  12.717   0.479 -0.0310 -0.0255 -0.2893
34060W        W37658   9.025   7.123   5.533  0.2598  0.0679 -0.1544
34061W        W37659   2.223  13.724   5.280 -0.2057  0.0616 -0.2848
34062W        W37660   2.609   6.365   5.100  0.2161 -0.1279 -0.3881
34063W        W37661   7.641  11.957  12.903 -0.1376 -0.1571  0.0198
34064W        W37662   8.159   2.151   3.067  0.2181 -0.1977  0.1617
34065W        W37663  11.236  15.305   8.829  0.0626 -0.1163 -0.0895
34066W        W37664  11.717   9.275  15.983 -0.2774 -0.0453  0.3894
34067W        W37665  14.181  10.986   4.112  0.1320  0.0014 -0.1576
34068W        W37666  10.065   5.907   2.717 -0.0158 -0.0921 -0.2744
34069W        W37667  11.474   4.756   9.979  0.1485  0.1225 -0.1972
34070W        W37668   7.191  11.172   2.135  0.0629  0.0443  0.3229
34071W        W37669  10.587  10.655  13.916 -0.0404  0.0132 -0.1693
34072W        W37670   3.949   7.574   5.946 -0.0583 -0.0853  0.0974
34073W        W37671   8.217  10.746  15.435 -0.1417 -0.1399 -0.2465
34074W        W37672  15.900   3.991   3.527  0.1290  0.1624  0.0307
34075W        W37673   2.943  14.864  16.083 -0.1376  0.0879  0.0038
34076W        W37674   9.073   9.149  11.764  0.0996 -0.0112 -0.2479
34077W        W37675  10.422  13.041   9.932  0.1828  0.2158 -0.0494
34078W        W37676   1.526  15.053   8.952  0.0093  0.0700  0.0782
34079W        W37677  12.018   4.630   6.272 -0.0532 -0.0539 -0.0420
34080W        W37678   5.551  13.235  10.139  0.1532  0.0737  0.3395
34081W        W37679  10.469  11.745   8.579  0.1508  0.1329  0.2796
34082W        W37680  12.845   8.116  13.010 -0.3434 -0.3172 -0.0842
34083W        W37681   5.891   3.977  16.264 -0.1578  0.0925 -0.0898
34084W        W37682   7.208   5.461  14.505  0.3782 -0.1242 -0.0561
34085W        W37683   3.411   6.055  11.539 -0.0493 -0.1911 -0.1247
34086W        W37684  12.339  14.018  11.738 -0.0345 -0.1804  0.0080
34087W        W37685  14.253   9.083  12.641  0.0220 -0.1018  0.2627
34088W        W37686  15.313  13.079  13.117  0.2610  0.1021 -0.0137
34089W        W37687   7.585   1.130  10.260  0.0662  0.0145 -0.3164
34090W        W37688  16.366   6.603   6.833  0.0475 -0.1140  0.0653
34091W        W37689   8.717   3.420   0.196 -0.1924  0.1354  0.0770
34092W        W37690  12.558  10.234  14.390  0.0899  0.0328  0.4582
34093W        W37691   3.766   1.792  14.601 -0.0859  0.3193  0.0414
34094W        W37692  14.628   2.337  12.462  0.2062 -0.2014  0.2368
34095W        W37693  13.299  13.561  13.332 -0.0701 -0.0668  0.0192
34096W        W37694   3.068  10.552   8.209 -0.0443  0.2875 -0.0092
34097W        W37695   2.609   3.268   5.716  0.0405  0.1206 -0.2046
34098W        W37696   0.243   6.889  10.968 -0.0461 -0.0516  0.2043
34099W        W37697   0.002  14.981   0.720  0.3250 -0.0724  0.0998
34100W        W37698  11.162  11.944   5.295  0.1015  0.0950  0.0658
34101W        W37699  13.205   9.185   3.817  0.2014 -0.0048 -0.1200
34102W        W37700   2.959   3.799   9.576  0.3997  0.1427  0.2930
34103W        W37701   4.863  14.990  12.061  0.0717 -0.3591 -0.1034
34104W        W37702  11.452   7.537   2.165 -0.1536 -0.0169  0.0098
34105W        W37703   8.359   9.352   7.235  0.1535 -0.1536  0.0434
34106W        W37704   2.709   1.411  14.987  0.2695 -0.2451 -0.0899
34107W        W37705   4.025   1.099   1.988  0.0638 -0.1285  0.0935
34108W        W37706  12.656   3.731   0.119 -0.0130  0.0041 -0.2376
34109W        W37707  11.886   0.918  15.138 -0.0483 -0.2271 -0.0532
34110W        W37708  15.859  15.806  15.826 -0.2619 -0.2476  0.0011
34111W        W37709  16.021  10.533   3.202  0.3719 -0.1555  0.1733
34112W        W37710   2.212   5.550   8.544  0.1916 -0.2882  0.0754
34113W        W37711   5.780  16.177   0.779 -0.1990  0.1443  0.1503
34114W        W37712   1.130  10.054   3.753 -0.2217  0.0301  0.3613
34115W        W37713   0.780  13.549  12.676  0.3524 -0.0495  0.4745
34116W        W37714   1.660   1.986  11.804 -0.2452 -0.0379  0.0796
34117W        W37715  15.808   6.929   2.566 -0.0049 -0.2251 -0.1292
34118W        W37716   0.657  12.779   5.166 -0.1160 -0.2748 -0.1330
34119W        W37717   2.631  16.223   6.346 -0.1858 -0.0348 -0.1919
34120W        W37718   7.791  14.941   1.246 -0.0281  0.1857  0.0712
34121W        W37719  14.727  16.259   5.501  0.0436 -0.0747  0.4550
34122W        W37720   9.604   9.733   6.581 -0.2040  0.0812 -0.0755
34123W        W37721   7.882  15.633  14.075  0.0014 -0.0458  0.0918
34124W        W37722  13.271   1.551  14.753 -0.2525  0.0051  0.1237
34125W        W37723  12.155  12.998   9.701  0.0525  0.3208 -0.0490
34126W        W37724  10.072  14.226  12.914 -0.0459  0.1606  0.1250
34127W        W37725   1.093   2.841   9.055  0.3583  0.0998  0.0978
34128W        W37726  14.797   6.017   6.283  0.2009  0.4689 -0.1631
34129W        W37727  16.056  12.380  13.091  0.0733  0.1054 -0.2469
34130W        W37728   7.403  14.594   1.217  0.0390  0.1454  0.0375
34131W        W37729  11.642   4.735  12.294  0.1146 -0.0275  0.0172
34132W        W37730  12.911   1.682  14.446  0.0028 -0.1857  0.1476
34133W        W37731  13.289   3.237   2.902 -0.2392 -0.0850 -0.2541
34134W        W37732   8.854  13.646   1.208 -0.1561 -0.0356 -0.1099
34135W        W37733   4.751  12.829  16.364 -0.0660  0.1779 -0.1413
34136W        W37734  15.486   7.166   9.722 -0.3321 -0.4673 -0.0241
34137W        W37735   1.122  11.337   0.644 -0.1016 -0.0286 -0.1784
34138W        W37736   3.431   8.333  13.377  0.0979  0.1623  0.2396
34139W        W37737   3.418   5.484   1.439 -0.1348 -0.3208 -0.1386
34140W        W37738  15.433   9.262  14.507 -0.2431  0.2021  0.0205
34141W        W37739   9.974  11.412  11.077  0.2579  0.1615  0.2920
34142W        W37740  13.703   1.395  10.749  0.0185 -0.0472  0.0615
34143W        W37741   6.943   0.844   8.301  0.2133 -0.2920  0.0752
34144W        W37742  14.191   1.930   3.591  0.2056  0.1210  0.0154
34145W        W37743   2.531   2.871   0.154 -0.2253  0.3184  0.1859
34146W        W37744   0.458  12.697   4.577 -0.2977 -0.2144 -0.2021
34147W        W37745  11.379   0.808  12.736  0.0074  0.0448  0.0823
34148W        W37746   4.261   7.789  14.352 -0.2898  0.1623 -0.1391
34149W        W37747   7.276  13.451  13.392 -0.0617 -0.1256 -0.2755
34150W        W37748   6.217   9.779   3.174 -0.1089 -0.1846  0.2781
34151W        W37749   3.537   3.181   1.215 -0.0974 -0.3411 -0.1184
34152W        W37750  13.280   0.960   7.875  0.1842 -0.0646 -0.2004
34153W        W37751   7.939   9.873  12.981  0.2802  0.3100  0.2514
34154W        W37752   1.804  13.840   2.349  0.3766  0.0641  0.2927
34155W        W37753   9.475  16.333   4.494 -0.3251 -0.0070 -0.0462
34156W        W37754   5.533   5.493  15.601  0.2966  0.2623  0.0636
34157W        W37755   8.611   4.221   3.730  0.1344  0.2118 -0.2284
34158W        W37756   9.502  15.130   6.646 -0.0021 -0.0339 -0.0664
34159W        W37757  13.190   0.216  11.341 -0.0306 -0.0952 -0.1482
34160W        W37758   1.879   5.977  16.333 -0.0402  0.1886 -0.2030
34161W        W37759   6.409   2.299   6.563  0.1727 -0.0581  0.1360
34162W        W37760   2.372  14.075   3.001  0.1497  0.3514 -0.1389
34163W        W37761  10.139  12.060  13.669 -0.3258 -0.1560 -0.0829
34164W        W37762   6.032  14.782   4.389 -0.0983  0.1219 -0.0880
34165W        W37763   3.542   7.900   3.227  0.1265  0.3693 -0.2343
34166W        W37764   0.117   6.205  12.581  0.0275 -0.1257  0.2078
34167W        W37765   0.476  11.566   4.636  0.1351  0.2397 -0.3279
34168W        W37766  13.073   6.482   4.425  0.2353  0.2621  0.2394
34169W        W37767   0.754   7.456  10.425 -0.3152 -0.0521 -0.0333
34170W        W37768   6.106  13.792  12.165 -0.2357 -0.3379  0.1946
34171W        W37769  10.295  14.364  12.010 -0.0038  0.0426  0.2269
34172W        W37770  12.847  15.587   7.317  0.2003  0.0055  0.1804
34173W        W37771  14.851  12.989  14.566  0.0955  0.0208 -0.2005
34174W        W37772   8.367  16.256   8.748  0.0933 -0.1000 -0.0750
34175W        W37773   7.192  10.248   3.127  0.1456 -0.0574  0.1365
34176W        W37774   2.075   1.765  12.043  0.0295 -0.0251  0.0384
34177W        W37775   5.217  14.214   7.739 -0.3556  0.2775 -0.1161
34178W        W37776   0.895   0.428   7.879  0.0136  0.2481  0.3182
34179W        W37777   4.643   1.896   1.973  0.0308 -0.2903  0.2501
34180W        W37778   3.013  16.178   4.676 -0.0906 -0.0712 -0.1582
34181W        W37779   2.513   5.958   2.566 -0.1138 -0.3135 -0.2765
34182W        W37780   5.776   6.497  12.922  0.1146 -0.0372  0.1257
34183W        W37781   1.382   1.855   0.077 -0.3193  0.0373  0.0922
34184W        W37782   8.718   9.577  16.145 -0.3240 -0.0085  0.1581
34185W        W37783   6.215  10.127  13.339  0.1896  0.0778 -0.1142
34186W        W37784  10.259  14.989  12.994  0.0410 -0.1567  0.0815
34187W        W37785  15.427  16.263  10.254  0.0306 -0.0775 -0.0638
34188W        W37786   0.771   3.578  14.467  0.0009  0.0067  0.1632
34189W        W37787   2.424   7.411  10.191  0.3053  0.0292 -0.2177
34190W        W37788  11.678   0.709   9.958 -0.1008  0.0919 -0.4323
34191W        W37789   2.433   8.367   6.473  0.1079  0.2713  0.0948
34192W        W37790  10.522   8.382  16.314 -0.4203  0.1378  0.1889
34193W        W37791   9.273   1.712   2.598 -0.0302 -0.0328 -0.0965
34194W        W37792   8.112   5.778  14.212  0.2501  0.2537 -0.0652
34195W        W37793   3.757  14.372   4.484  0.0910 -0.1491 -0.2750
34196W        W37794   2.661   6.472  13.840  0.0766 -0.0327  0.1027
34197W        W37795   4.577   7.265   9.148 -0.0837  0.1254 -0.1860
34198W        W37796   7.841   5.471  13.771 -0.3761 -0.0696  0.3988
34199W        W37797   2.957   3.729  15.879 -0.0677  0.0544  0.1527
34200W        W37798   4.993   1.920  16.240 -0.0448  0.1301  0.0045
34201W        W37799  15.631   3.962  10.399  0.1056 -0.1617 -0.0184
34202W        W37800   3.698  16.357  14.986  0.2504  0.1330  0.0968
34203W        W37801   8.015  15.589   4.320  0.3326 -0.0670 -0.1196
34204W        W37802  16.011   6.103  13.494 -0.1867 -0.3073 -0.1175
34205W        W37803   1.547   1.932   5.950 -0.0367 -0.2689  0.0242
34206W        W37804   2.317   5.560  11.411 -0.0557 -0.1857 -0.1313
34207W        W37805   8.060  12.147   2.376  0.1197 -0.0369 -0.1351
34208W        W37806  13.087   0.212   6.352 -0.1675 -0.0507 -0.2377
34209W        W37807   1.997  14.472   8.164 -0.0094  0.1630 -0.0566
34210W        W37808  14.718   0.227   2.162 -0.2366  0.1527  0.2018
34211W        W37809   1.889   1.143  15.607 -0.0995  0.0021 -0.1638
34212W        W37810   4.720   1.445  10.476  0.1195 -0.1829  0.1787
34213W        W37811   1.549   0.543  15.150 -0.2407  0.0416  0.3513
34214W        W37812  16.225   2.456   1.949 -0.1189 -0.1127  0.1231
34215W        W37813   9.796  14.138   0.888  0.3105 -0.0037  0.1220
34216W        W37814  16.345  15.751   5.877 -0.0382 -0.1956 -0.0000
34217W        W37815   3.210   8.626  14.525 -0.0362  0.1805 -0.1562
34218W        W37816   4.515   4.727   8.553 -0.1169 -0.1329  0.0977
34219W        W37817  15.890   6.240   8.313  0.1146  0.0220  0.0426
34220W        W37818  11.599   0.378  16.313  0.0461 -0.0038 -0.4253
34221W        W37819   5.401   1.576   2.378 -0.3776 -0.0353 -0.1728
34222W        W37820  12.777   2.846  16.041  0.0356  0.2118  0.0897
34223W        W37821  15.798  12.586   4.179 -0.1980  0.2275 -0.1134
34224W        W37822  13.977   6.151  14.676  0.0813 -0.0123 -0.1455
34225W        W37823   3.471   8.517   3.142  0.0297 -0.2088 -0.2248
34226W        W37824   2.886   1.657   5.144  0.0852  0.1436  0.2723
34227W        W37825   2.780   6.331   9.695  0.0385 -0.1092 -0.2141
34228W        W37826   3.912   3.688  16.002  0.1706 -0.0886 -0.1589
34229W        W37827  12.762  12.281   3.444 -0.3468 -0.1131 -0.0690
34230W        W37828  10.941  11.116  14.778  0.0259 -0.0601 -0.2053
34231W        W37829  13.842   6.925   6.269  0.1239  0.1808  0.0956
34232W        W37830   9.735   6.362  10.702  0.1138 -0.0591 -0.1939
34233W        W37831  14.817   0.646  11.328  0.0104 -0.0867 -0.2910
34234W        W37832  10.158  13.001   1.542 -0.0345 -0.1102  0.1913
34235W        W37833   5.568   2.076  16.261 -0.2024 -0.0207 -0.1652
34236W        W37834   3.555   7.733  11.535 -0.0518 -0.1282  0.2201
34237W        W37835  12.631  14.645  12.116 -0.0129 -0.1453 -0.0163
34238W        W37836   5.438  16.355  13.643  0.0164 -0.0034  0.0309
34239W        W37837   2.313   9.195  11.138  0.2394 -0.1902 -0.2017
34240W        W37838   6.166   3.031   2.018 -0.0334 -0.3156 -0.0312
34241W        W37839   3.003   6.050  13.806 -0.0054 -0.0804 -0.2852
34242W        W37840   1.381   4.743   3.244 -0.1002  0.0115  0.0721
34243W        W37841  11.849  12.605  13.463  0.2659  0.1396  0.2769
34244W        W37842  13.836   2.022   7.003 -0.3538  0.1728  0.0085
34245W        W37843  10.620   3.156   5.200  0.0989 -0.0670 -0.0676
34246W        W37844   6.916  10.789   1.114 -0.0559  0.0961 -0.2106
34247W        W37845  12.715   4.908   2.180 -0.1144 -0.0347 -0.3476
34248W        W37846  16.343   0.453   5.968 -0.2016 -0.1898 -0.1259
34249W        W37847  15.609   7.482   7.915 -0.0225 -0.1464 -0.0685
34250W        W37848  10.541   2.749   3.145  0.4474 -0.1044  0.1779
34251W        W37849  10.410   7.184   9.570 -0.0064 -0.1304  0.1286
34252W        W37850   4.012   0.339  14.578  0.2492 -0.1526  0.1281
34253W        W37851   9.918  15.839  14.060 -0.0868 -0.1840 -0.0425
34254W        W37852  12.026  10.423  16.389 -0.0448 -0.0011 -0.0217
34255W        W37853   6.059  10.884   5.964 -0.0533  0.0211  0.2391
34256W        W37854  12.559  10.742  14.780 -0.1650  0.2992  0.1820
34257W        W37855   1.495   5.291  10.084 -0.3853 -0.2045 -0.0748
34258W        W37856   5.632   4.395   7.606 -0.1997  0.0605  0.0764
34259W        W37857   8.374   7.937  15.802  0.1221 -0.1335 -0.0497
34260W        W37858   3.571   1.070  11.338  0.0525 -0.2052 -0.0485
34261W        W37859   7.284   5.364  11.057 -0.0351 -0.2669  0.4015
34262W        W37860   3.455   6.653   3.774  0.0391  0.0678 -0.0360
34263W        W37861  13.862  11.252   4.499 -0.1274 -0.0899 -0.1435
34264W        W37862  11.084   0.169  11.701 -0.1074 -0.0003 -0.1581
34265W        W37863  15.357   3.683   3.460  0.2713  0.1665  0.0153
34266W        W37864   3.092   8.722   0.039  0.0670 -0.3425 -0.0308
34267W        W37865   0.437   5.143   6.824  0.1864  0.1574 -0.0694
34268W        W37866   6.987  14.857   1.738 -0.4903  0.0078 -0.2201
34269W        W37867   1.483  10.627   6.513  0.2522 -0.0316  0.2072
34270W        W37868   4.548   8.694   9.558 -0.1088  0.4148  0.1144
34271W        W37869  10.872   9.716  13.220  0.2445  0.0211  0.1136
34272W        W37870   5.347  12.307   7.378 -0.1682 -0.0103  0.0735
34273W        W37871   8.795   1.447  11.997  0.1520 -0.0028  0.1044
34274W        W37872   9.023   2.389   6.115 -0.2366  0.1389 -0.0077
34275W        W37873   6.326   1.423  13.928  0.1172  0.3050  0.0624
34276W        W37874   1.143   1.834   7.303 -0.2194 -0.3721  0.0897
34277W        W37875   1.275  15.187   0.215  0.3658  0.0114  0.2854
34278W        W37876  15.136  11.406  11.135 -0.0130 -0.0016 -0.0903
34279W        W37877  16.062   3.270   5.731 -0.1280  0.3296 -0.2690
34280W        W37878   0.604  11.039   7.108  0.0448  0.1143 -0.3951
34281W        W37879  10.470  10.948   6.855 -0.2055 -0.0818  0.0662
34282W        W37880  11.814   3.710  15.974  0.0022 -0.0508  0.0916
34283W        W37881   6.504   8.545   3.528 -0.1822  0.0423 -0.0932
34284W        W37882   0.698   5.614  10.796  0.1482  0.0946 -0.1248
34285W        W37883   0.151   6.372  10.749 -0.0243 -0.0764  0.0741
34286W        W37884  15.714   7.009   8.706 -0.3068  0.2341 -0.1168
34287W        W37885  16.234  10.342   9.341  0.1526  0.6240 -0.0829
34288W        W37886   1.426  12.858   9.730  0.2430 -0.2795 -0.0992
34289W        W37887   7.139   7.207   3.403  0.0813  0.0303 -0.1664
34290W        W37888  10.352  11.343  11.507 -0.1712  0.0837 -0.3690
34291W        W37889  13.754   8.887  12.499 -0.1509 -0.1885 -0.0551
34292W        W37890   5.625  12.349   2.431 -0.0791 -0.0566  0.3187
34293W        W37891   7.374  11.683   8.682 -0.2940 -0.1814  0.3331
34294W        W37892  10.982  10.996   6.866  0.0385 -0.0284  0.2904
34295W        W37893   9.834   9.304  15.346 -0.3677  0.0622 -0.0535
34296W        W37894   7.657   4.364   1.702  0.1111 -0.1823  0.0470
34297W        W37895   7.820   0.748   8.017  0.0672 -0.0877  0.2091
34298W        W37896  12.158   1.683  11.872  0.0459 -0.2737 -0.0165
34299W        W37897   7.228   3.019  12.060 -0.2685  0.3398 -0.3881
34300W        W37898   7.649  14.297   7.452 -0.1590 -0.2855 -0.2741
34301W        W37899  13.807  14.676  14.794 -0.0854 -0.0686  0.0306
34302W        W37900   3.771  13.947   7.976 -0.2018 -0.2684  0.1726
34303W        W37901   8.790   8.980   8.967 -0.2851 -0.1112 -0.3188
34304W        W37902   8.763   6.929  11.729 -0.1798  0.0111  0.0864
34305W        W37903   2.410  14.250  15.208  0.1751 -0.1303  0.1484
34306W        W37904   2.289   4.807   3.093  0.2051 -0.0460  0.0596
34307W        W37905   3.541   1.711   1.522  0.1021  0.0526  0.0426
34308W        W37906  12.160   9.786   6.737 -0.1535  0.0007 -0.3152
34309W        W37907  15.171   6.710   5.719 -0.1759 -0.0637  0.0668
34310W        W37908  14.170   1.713  15.126  0.0423 -0.0198  0.1261
34311W        W37909  11.449  15.869   9.753 -0.1046 -0.1266  0.1068
34312W        W37910   7.213   6.500   9.685  0.0144 -0.2690 -0.1512
34313W        W37911  14.985  16.001   5.170  0.1323  0.2679  0.0782
34314W        W37912   0.952  11.640   3.635  0.2403  0.2801 -0.0261
34315W        W37913   8.928   2.704   1.221 -0.3815 -0.2060  0.0423
34316W        W37914  14.052   0.245   2.169 -0.1654  0.2033 -0.1278
34317W        W37915   6.570   2.650  10.164 -0.0667  0.0177  0.1592
34318W        W37916   8.558  11.558   0.779  0.1878  0.2463 -0.2896
34319W        W37917  10.275   9.144   9.948  0.0483 -0.1517  0.1706
34320W        W37918  11.015   7.486  10.245 -0.0942 -0.0565 -0.0817
34321W        W37919  14.931   4.604   5.108  0.0191  0.0163 -0.0434
34322W        W37920   7.295   7.419  13.086  0.0038 -0.0511 -0.1717
34323W        W37921   2.666  10.897   9.312 -0.1208  0.0640  0.1017
34324W        W37922  15.601   7.306   5.184 -0.0851 -0.2052 -0.2350
34325W        W37923   4.897   9.059   9.803 -0.1252  0.1781 -0.1082
34326W        W37924  10.024   4.157   6.771  0.3212  0.0089  0.1712
34327W        W37925  10.143   3.740   2.655  0.0204 -0.2312 -0.0119
34328W        W37926  15.340  14.754  15.238  0.1402 -0.1425  0.0781
34329W        W37927  14.726   7.067  11.341  0.4010 -0.3277 -0.1872
34330W        W37928   2.876  16.268   0.027 -0.1161 -0.2813 -0.2541
34331W        W37929  15.699   6.515   9.223 -0.3318  0.1286 -0.0265
34332W        W37930   8.078   0.353   9.588  0.1637  0.1340  0.0673
34333W        W37931   4.213   9.596   9.079 -0.0999  0.0017  0.0898
34334W        W37932   8.672   6.437   6.745 -0.0232 -0.0455  0.1261
34335W        W37933   6.291   3.713   5.486  0.0548  0.2192 -0.0063
34336W        W37934  13.960  15.829   0.252 -0.1533  0.0708 -0.2106
34337W        W37935   1.442  14.587   8.238  0.1611 -0.2113 -0.1376
34338W        W37936  13.257   3.046   7.868 -0.0867 -0.1839 -0.2495
34339W        W37937   5.861  13.414  14.000 -0.3820 -0.1313 -0.1563
34340W        W37938   8.510   7.315   8.915 -0.1025  0.0665 -0.0257
34341W        W37939  12.238   4.183  14.403  0.2280 -0.1739  0.1996
34342W        W37940   7.922   0.736   5.299  0.0052  0.1703  0.1707
34343W        W37941  12.304  14.367   1.066 -0.1926  0.1175  0.3788
34344W        W37942  11.919   5.257  11.322 -0.1670 -0.1613  0.1330
34345W        W37943  10.933   2.338   5.082 -0.2346  0.1080 -0.1135
34346W        W37944  15.258   6.726   9.520  0.2239  0.1526 -0.0599
34347W        W37945  14.978   7.621   5.810  0.1429  0.0975 -0.0961
34348W        W37946  16.332  13.245  12.246  0.0312  0.1889 -0.1597
34349W        W37947   3.068  10.016   8.088 -0.1894 -0.0409 -0.2530
34350W        W37948   7.332   3.222  10.324  0.0133 -0.3335  0.0606
34351W        W37949   9.941   5.548  10.877  0.1570  0.4275  0.3886
34352W        W37950  13.908   7.353   3.770 -0.0120 -0.1651  0.0687
34353W        W37951   6.411   8.513  14.135 -0.1714  0.0314  0.1138
34354W        W37952   4.790  12.410   4.099  0.2220 -0.1359  0.3098
34355W        W37953   8.913  15.528   4.337 -0.0508  0.3588  0.2292
34356W        W37954   8.486   0.115   2.450 -0.0124  0.3941 -0.0241
34357W        W37955   1.296  16.114   2.818  0.3460  0.1777 -0.2129
34358W        W37956   5.422  15.925   2.825  0.0814 -0.2994  0.1419
34359W        W37957   8.302  12.829  12.669 -0.4108  0.1793  0.1551
34360W        W37958  13.629  10.270   2.681  0.0529 -0.0326 -0.1178
34361W        W37959   3.182   6.944   7.988  0.2442  0.0096  0.0742
34362W        W37960   7.780   8.159  12.769  0.1197 -0.1194  0.0543
34363W        W37961   4.858   3.616  10.269  0.1210 -0.1447 -0.0490
34364W        W37962   6.351   1.462  13.442 -0.2000 -0.0026 -0.0067
34365W        W37963   9.622   5.344  13.805 -0.1853 -0.1361  0.2936
34366W        W37964  15.999   6.091   9.178 -0.1728  0.1252 -0.3140
34367W        W37965   9.301  14.019   1.731 -0.0938  0.1674 -0.0401
34368W        W37966   2.374   5.095  11.143  0.3782 -0.0071  0.0951
34369W        W37967  13.953   8.592   2.070 -0.3909  0.0870 -0.0746
34370W        W37968   0.624   0.792  14.702  0.2312  0.0952  0.0917
34371W        W37969   1.792  14.816   1.639 -0.2177 -0.0031  0.2236
34372W        W37970   2.917  12.844   2.884  0.0567  0.0259  0.0631
34373W        W37971   1.140  11.085   7.082  0.1363 -0.0303  0.1610
34374W        W37972   4.848   4.320   8.727  0.0699  0.0642  0.1008
34375W        W37973  15.740   0.693  15.220  0.1258 -0.0185 -0.2663
34376W        W37974   7.874   8.389  14.661 -0.2778  0.2379 -0.0608
34377W        W37975  12.725  14.727   7.695 -0.1163 -0.0903 -0.1585
34378W        W37976   1.511   3.177  13.649 -0.0514  0.2990  0.0690
34379W        W37977  12.522  12.024  12.097 -0.0377 -0.1611 -0.2954
34380W        W37978   4.263   1.101   9.870 -0.1803 -0.2049 -0.0804
34381W        W37979   5.748   1.569  15.702 -0.1424 -0.0318 -0.0609
34382W        W37980  12.098   5.747   5.905 -0.2632  0.0965  0.1204
34383W        W37981   9.975   7.166   4.408 -0.2471  0.1807 -0.3998
34384W        W37982   3.853  15.379   8.404 -0.0155 -0.2961  0.3191
34385W        W37983   9.150   8.716   3.728 -0.0725  0.1609 -0.0830
34386W        W37984  15.130   8.718   5.346 -0.0211  0.1046  0.0656
34387W        W37985   8.018   4.644   9.081  0.0592  0.1438  0.1668
34388W        W37986  11.035   4.819   5.040  0.1965 -0.0300 -0.2640
34389W        W37987   4.780  15.522   4.086 -0.2829  0.1259  0.3101
34390W        W37988   0.807   0.485  16.119  0.2219  0.0338 -0.1842
34391W        W37989  10.433   9.867  10.317  0.0389 -0.1320 -0.1467
34392W        W37990   8.834  13.674   3.147 -0.0033 -0.2933  0.1447
34393W        W37991  12.432   6.444  13.834  0.1808  0.1124 -0.0392
34394W        W37992   7.245  14.806   0.794  0.0476 -0.0163 -0.1271
34395W        W37993   3.260   8.186  10.316  0.0655 -0.2956  0.1023
34396W        W37994  10.591   3.070   5.836 -0.0356  0.1342  0.0800
34397W        W37995   6.033   3.611  15.386  0.0310 -0.0244 -0.0037
34398W        W37996  14.692  11.320   1.497 -0.0090  0.0421  0.0848
34399W        W37997   1.472  14.689  13.797 -0.1508  0.1353 -0.1815
34400W        W37998   6.197   6.523   9.516 -0.1604 -0.3809 -0.2225
34401W        W37999  10.456   5.065   2.972 -0.1797  0.1776 -0.1599
34402W        W38000   5.079   5.338   4.173 -0.0416  0.1021 -0.0657
34403W        W38001  10.822   5.319   5.420  0.1160  0.0162 -0.1094
34404W        W38002   2.949   7.435   8.597  0.1314  0.2465 -0.0496
34405W        W38003   1.787  15.084  10.039 -0.1199  0.0160 -0.0199
34406W        W38004  13.716   6.941  14.874 -0.2861  0.0324 -0.0159
34407W        W38005   5.223   8.500   8.018 -0.2483 -0.0126 -0.0533
34408W        W38006  10.847   0.703  12.674 -0.3809 -0.0334  0.1507
34409W        W38007   1.850  10.428   5.958 -0.1770  0.1012 -0.0287
34410W        W38008   5.255   5.063   5.106 -0.2644  0.0389 -0.0944
34411W        W38009  15.385   1.240  15.956 -0.0819  0.1908 -0.0709
34412W        W38010   1.572   4.663   7.750  0.3037  0.2299 -0.0937
34413W        W38011   6.736  10.020  15.824 -0.1989  0.2636 -0.1920
34414W        W38012   2.421   6.728   2.507 -0.2278  0.0792 -0.1398
34415W        W38013  15.680   8.025   6.288 -0.0443  0.1480  0.1093
34416W        W38014   1.684   3.538  14.367  0.1016  0.0167  0.1883
34417W        W38015  14.048   6.939   0.363  0.1359 -0.2232 -0.0453
34418W        W38016   6.023  13.372   4.388 -0.2892  0.1770 -0.0152
34419W        W38017   3.828   4.939  15.630  0.0354 -0.0828  0.1572
34420W        W38018   7.938  14.094   6.318  0.0256  0.1426 -0.0222
34421W        W38019  11.952  15.297   4.625 -0.0342  0.1796  0.0408
34422W        W38020  14.468   3.100   9.649  0.1674 -0.1568 -0.1155
34423W        W38021  15.762   6.195   0.333  0.0725  0.0169 -0.0930
34424W        W38022   4.051  15.832  10.868 -0.2292  0.1016  0.1460
34425W        W38023   2.135   3.471   2.782  0.2229 -0.0217  0.1418
34426W        W38024  14.994  15.680  11.479 -0.3671  0.2108  0.0446
34427W        W38025  15.389   8.297   8.656  0.3025 -0.1250 -0.1177
34428W        W38026  12.723   9.333  14.478 -0.0294  0.1798  0.2108
34429W        W38027   8.337   1.473  11.810 -0.3751  0.1790  0.2537
34430W        W38028  16.138  12.147   4.500  0.2315  0.0502 -0.2366
34431W        W38029   7.202   8.147  10.193 -0.2579 -0.1164 -0.1608
34432W        W38030   3.169   7.733  13.465 -0.1082 -0.0310  0.0934
34433W        W38031  14.982   0.145   5.839 -0.0536 -0.1703 -0.1797
34434W        W38032   1.274   3.874  10.576 -0.1272 -0.3120  0.0521
34435W        W38033  10.903  12.420   8.690  0.2323  0.3605  0.2898
34436W        W38034  15.845   0.307  13.919 -0.1271 -0.0309  0.2168
34437W        W38035  14.937  15.789   9.041 -0.0510 -0.1831 -0.1920
34438W        W38036   1.757  14.143  15.991  0.0540 -0.0250  0.1232
34439W        W38037   8.675   3.514  11.662  0.0324 -0.3344 -0.0422
34440W        W38038  10.479  11.945   4.390 -0.1147 -0.0186  0.1184
34441W        W38039   5.488   9.063   1.925  0.2376 -0.0825 -0.0065
34442W        W38040  10.259   1.765   4.006  0.0146  0.2145  0.4339
34443W        W38041  11.838   2.143  15.957  0.2884  0.1548 -0.3193
34444W        W38042   8.349  15.324  13.967 -0.2782  0.0570 -0.1771
34445W        W38043   4.352  12.904  13.592  0.1423  0.5106 -0.1099
34446W        W38044  15.196   6.260   5.372 -0.0455  0.0179 -0.0830
34447W        W38045   8.471   1.797   6.042 -0.0033 -0.0611 -0.0042
34448W        W38046   7.943  11.456  10.416  0.0274  0.2463 -0.3433
34449W        W38047  13.198  10.215   1.640  0.2468 -0.0651 -0.1932
34450W        W38048  11.383   6.710   3.477  0.1947  0.1050  0.3250
34451W        W38049   6.258   6.102   1.065  0.0583 -0.1726  0.0200
34452W        W38050  15.971   2.701   2.991  0.1269  0.2304  0.3814
34453W        W38051   7.262  15.813   3.726  0.1537  0.0793 -0.0793
34454W        W38052  15.778   8.341   3.815  0.0495 -0.4021  0.1952
34455W        W38053   5.863  14.948   2.841  0.0485 -0.0868  0.0159
34456W        W38054   9.347   2.161   4.187 -0.3271  0.2687 -0.1103
34457W        W38055   7.146   2.278   7.235 -0.2348  0.0633  0.0330
34458W        W38056  10.739   9.656   0.288 -0.0543 -0.0035  0.0198
34459W        W38057   0.491  13.318   8.231 -0.0303 -0.1819 -0.0967
34460W        W38058   8.137  16.312   5.154  0.4281 -0.1696 -0.1320
34461W        W38059   7.685  10.567  10.790 -0.2463  0.0669 -0.1649
34462W        W38060   5.520   6.387   3.383  0.1836  0.1466  0.0984
34463W        W38061  15.100  12.500  16.308  0.0410 -0.0719  0.0669
34464W        W38062  14.217  13.694  12.946 -0.1138  0.0817 -0.0530
34465W        W38063  10.656   4.770  10.801 -0.0269  0.3851 -0.3584
34466W        W38064   4.333   4.928  15.805 -0.2458 -0.1561  0.1290
34467W        W38065  15.136   1.422   0.028 -0.1448  0.2463 -0.1191
34468W        W38066  12.752  15.798   6.394 -0.0122 -0.3428 -0.1596
34469W        W38067  13.005   4.743  12.566 -0.2405  0.1371  0.1786
34470W        W38068   2.528  10.638  12.656 -0.3316  0.1170  0.1465
34471W        W38069  13.147  13.971  11.387 -0.3760  0.3283 -0.2013
34472W        W38070  13.211   5.544  11.487  0.2109  0.0398  0.2611
34473W        W38071   2.135   1.078   0.183  0.0596  0.1013  0.1760
34474W        W38072   4.865  12.663  14.555 -0.1798  0.0045  0.2750
34475W        W38073   1.305  15.507   6.833  0.2681  0.0579  0.0942
34476W        W38074   2.756  13.666   3.768 -0.1732 -0.0623 -0.0046
34477W        W38075  10.856   5.910   0.846 -0.3354 -0.0072 -0.2535
34478W        W38076   3.845   1.333   8.911 -0.2324  0.3873  0.3607
34479W        W38077   6.860   4.785  11.546 -0.0349  0.2015  0.1180
34480W        W38078   3.892  15.577   0.470  0.0561 -0.4961  0.0994
34481W        W38079   6.244  15.688   3.572  0.0426 -0.0869  0.1194
34482W        W38080   3.264   8.143   5.958  0.0445  0.0215 -0.0163
34483W        W38081   5.957   9.637   0.872 -0.2822  0.1401 -0.1179
34484W        W38082  14.153   7.803  13.290  0.1034  0.0958  0.0170
34485W        W38083   2.149  12.227   5.670  0.1506  0.0170 -0.1260
34486W        W38084   9.590   6.196  14.406  0.2248  0.0640  0.1115
34487W        W38085  15.741   3.257  15.823  0.0833 -0.2794 -0.0670
34488W        W38086   1.022  14.705   0.911  0.3392 -0.0383  0.1141
34489W        W38087   8.230  14.979  12.507  0.1761 -0.1038  0.0650
34490W        W38088   3.301   5.199   9.839 -0.1481  0.0028 -0.0305
34491W        W38089  14.169   3.388  16.182 -0.1332 -0.3234 -0.0027
34492W        W38090   1.696   7.013  14.881  0.0676  0.0634 -0.1018
34493W        W38091   5.314  15.294  14.615  0.4280  0.5343  0.0374
34494W        W38092   7.533  12.592   0.631 -0.1122 -0.1135  0.1457
34495W        W38093   8.742  13.609  15.351 -0.0227 -0.4524 -0.1157
34496W        W38094  16.305   6.860  10.557 -0.0011 -0.0869  0.1099
34497W        W38095  10.197   9.909   2.461  0.0793 -0.1801 -0.0609
34498W        W38096  15.963  10.844   5.610 -0.1513 -0.1761 -0.3536
34499W        W38097  16.200   2.189   7.756 -0.0072  0.1680  0.0978
34500W        W38098  14.956   8.918  13.317  0.1967 -0.3060 -0.0090
34501W        W38099  12.602  13.107   5.832 -0.1957  0.3495 -0.2347
34502W        W38100   2.252  16.353  15.583  0.0159 -0.2636 -0.4352
34503W        W38101   2.505   2.413   6.750 -0.1963  0.2131 -0.0053
34504W        W38102   1.115  10.906  14.262  0.0417 -0.3610  0.1550
34505W        W38103   8.368  10.725  15.942  0.1108 -0.2317  0.0248
34506W        W38104   3.679   4.509  10.346 -0.2524  0.0493  0.2104
34507W        W38105   2.830   7.601   8.051  0.0015 -0.2802 -0.0662
34508W        W38106   3.428  13.092   7.356  0.1428  0.0224  0.2092
34509W        W38107   6.072  12.798  15.226  0.0753 -0.0003  0.0117
34510W        W38108  13.539  13.120  14.605 -0.0974  0.1496  0.4353
34511W        W38109   4.658  10.573   0.439  0.0921 -0.2678 -0.1103
34512W        W38110   5.178   1.595   8.214 -0.1965  0.0483  0.1239
34513W        W38111   6.099   9.874   1.619  0.1225  0.2398 -0.0467
34514W        W38112   2.718  16.356  14.726 -0.3003 -0.3686 -0.0628
34515W        W38113   3.790  10.313  15.545 -0.3863  0.0876  0.0301
34516W        W38114  13.571   1.386  15.539 -0.1841  0.2423  0.0510
34517W        W38115  15.199   2.338   7.066  0.2054  0.1125 -0.1769
34518W        W38116  10.665  12.381  11.535 -0.0639  0.1451 -0.0036
34519W        W38117   2.645  13.965   5.113  0.2412 -0.0272  0.2501
34520W        W38118   6.166   9.670   7.718 -0.2791  0.0998  0.2942
34521W        W38119   5.090  13.488  14.139  0.2013  0.0465 -0.0619
34522W        W38120   9.968  12.161   8.407  0.0600  0.1184  0.0424
34523W        W38121   1.815   3.605   3.275 -0.2497  0.1061 -0.1456
34524W        W38122  13.626  15.026  13.773 -0.1643  0.1139 -0.2118
34525W        W38123  10.021   9.019  15.946 -0.0538  0.1295  0.0770
34526W        W38124   0.502  11.179  12.370  0.1207  0.2232 -0.2815
34527W        W38125   6.681   9.681  16.185  0.1234 -0.2308  0.0637
34528W        W38126   1.417  15.445  15.085 -0.0114 -0.1030  0.1250
34529W        W38127  13.036   2.053  15.506 -0.1618 -0.4429  0.0725
34530W        W38128   4.569   7.097  10.801 -0.4331 -0.2579  0.1210
34531W        W38129   6.257  12.274   8.918  0.1141  0.1269  0.1463
34532W        W38130   6.766   6.636  13.922 -0.2878 -0.1437 -0.0276
34533W        W38131   6.144  10.132   5.228 -0.1592 -0.1884  0.2102
34534W        W38132   6.469  15.968   1.065 -0.0496  0.0528  0.3213
34535W        W38133  14.621  15.095   6.971  0.1360 -0.1545 -0.0372
34536W        W38134   4.703   3.814   7.220  0.2589 -0.0727  0.2380
34537W        W38135  13.200   5.051   9.350  0.0814  0.2029 -0.2956
34538W        W38136   4.202   8.659  14.196  0.0687 -0.0306 -0.0630
34539W        W38137  10.065  12.994   5.899 -0.1141  0.1093 -0.3121
34540W        W38138  11.806   8.003  11.016 -0.4294  0.0711  0.1397
34541W        W38139   7.355  12.809   1.380  0.3950 -0.1658  0.0938
34542W        W38140   5.132   8.706   5.414  0.1147 -0.1488  0.3294
34543W        W38141   0.363  11.265   4.239 -0.0364  0.0892 -0.1876
34544W        W38142  10.999   9.678   9.624  0.0073  0.2665  0.0366
34545W        W38143  12.343   1.431  13.805 -0.1280  0.1726  0.0883
34546W        W38144   3.358   2.094   5.159  0.0870 -0.0473 -0.4370
34547W        W38145  12.072  14.019   8.998  0.2686  0.0316 -0.2438
34548W        W38146   7.302   1.373   2.545 -0.1244 -0.0324 -0.2629
34549W        W38147  10.077   8.549   5.818  0.0510  0.1751  0.1996
34550W        W38148  13.521  12.304   2.319 -0.1265 -0.0044  0.0612
34551W        W38149  11.054   4.533  15.086  0.1953 -0.2755 -0.1712
34552W        W38150  13.895   8.909  11.226 -0.1623  0.2345 -0.0376
34553W        W38151   3.789  16.239   1.487 -0.0006  0.3980  0.3322
34554W        W38152   6.677  10.913   8.338 -0.0412 -0.2191  0.0701
34555W        W38153   3.597  14.405   7.149  0.0905  0.0130  0.0787
34556W        W38154   5.025  11.166  12.189  0.2244 -0.0051  0.2741
34557W        W38155  12.814   1.064   8.114  0.1897 -0.0847  0.2213
34558W        W38156   3.512  16.197   6.098 -0.1178  0.2212 -0.0460
34559W        W38157   0.953   8.900   7.753  0.0184 -0.3114  0.1691
34560W        W38158   6.568  15.528   1.269 -0.0031  0.0335  0.0973
34561W        W38159  11.275   6.337   3.823 -0.5554  0.0492  0.2308
34562W        W38160   3.956  14.018  12.010  0.0424 -0.0143  0.0723
34563W        W38161  10.526   6.215   8.118  0.1757 -0.0316  0.1766
34564W        W38162  12.666  13.078   2.940  0.0823 -0.0955  0.1082
34565W        W38163   2.843  11.348   7.857  0.1974  0.0952 -0.0174
34566W        W38164   0.353  13.791   1.120 -0.4175 -0.1890  0.2842
34567W        W38165   0.440   7.137   4.800 -0.3208  0.1662 -0.2296
34568W        W38166   5.036  12.449   2.772  0.1491  0.3131  0.1225
34569W        W38167   2.355   4.299   8.125 -0.3554  0.0337  0.2599
34570W        W38168   4.280   3.447   6.776 -0.1351  0.2963 -0.2686
34571W        W38169  12.799  11.389   1.100 -0.1682  0.0208  0.3652
34572W        W38170   0.676   9.486  10.368 -0.3843  0.2700 -0.0287
34573W        W38171  15.247  16.169   9.161  0.0099 -0.2371  0.1166
34574W        W38172  10.149   4.840   1.384  0.0840 -0.0492  0.1752
34575W        W38173   8.350  14.207  14.830  0.0884 -0.0008  0.1885
34576W        W38174  14.605  13.302   7.609 -0.0814  0.1118 -0.0073
34577W        W38175   3.218   2.910  15.241  0.2306 -0.0352 -0.3170
34578W        W38176   0.598  14.981   0.994 -0.1752  0.0279 -0.2913
34579W        W38177   3.480  10.141   5.314 -0.0091 -0.1841  0.0910
34580W        W38178   3.907   1.920  10.480  0.4190  0.0628 -0.1095
34581W        W38179  12.425   8.896  11.850 -0.0537 -0.1999 -0.3338
34582W        W38180  12.887  13.191  16.241 -0.0132 -0.0774  0.0540
34583W        W38181   6.115  15.613   2.258 -0.2077  0.1945 -0.1010
34584W        W38182   7.481   3.984   6.742  0.1473  0.0170 -0.4901
34585W        W38183  15.950  16.161   5.270  0.0463 -0.4255  0.0699
34586W        W38184  13.383   4.588   6.674  0.0635 -0.1959 -0.1563
34587W        W38185  13.577   9.810  10.949  0.1190 -0.1902  0.0778
34588W        W38186   1.430  13.359   5.455  0.2852 -0.1680 -0.0915
34589W        W38187  11.989  15.192   1.601 -0.1064 -0.2612  0.0401
34590W        W38188   0.866   6.304   5.241 -0.3142 -0.3643 -0.3379
34591W        W38189   3.930  15.816  12.825 -0.1022 -0.1062  0.3804
34592W        W38190  12.434  10.562   2.318  0.3568  0.1787 -0.2882
34593W        W38191   2.873  10.728   4.773  0.0499  0.1724  0.3642
34594W        W38192  11.503   7.581   7.714  0.2301  0.1725  0.2684
34595W        W38193   0.983   7.751   2.019  0.0374  0.1320  0.0369
34596W        W38194  10.650   9.339   1.219  0.0214  0.2464 -0.0072
34597W        W38195   3.820   1.939  16.178 -0.1843 -0.1623  0.1136
34598W        W38196  10.343   5.064   6.557 -0.4017 -0.0965 -0.0516
34599W        W38197   7.210   0.898   8.842 -0.0865  0.1217  0.1953
34600W        W38198  15.964  12.059   0.015 -0.2970 -0.2088 -0.0301
34601W        W38199  12.471   8.344  13.992 -0.2283 -0.1229 -0.0746
34602W        W38200   9.074  15.764   6.037 -0.1110  0.0170  0.2981
34603W        W38201   7.115   1.042  11.990  0.1120 -0.0188  0.1458
34604W        W38202  10.945  11.812  11.765  0.2199 -0.0697  0.0080
34605W        W38203   8.722   5.838  13.638 -0.1302  0.0723 -0.1097
34606W        W38204  14.964  13.586  13.416  0.0376 -0.1949  0.3335
34607W        W38205  12.543  12.053   1.631 -0.1490 -0.0168  0.1097
34608W        W38206  12.280   7.092  12.003  0.1848 -0.1204  0.3183
34609W        W38207   9.960   4.561   2.900  0.1464 -0.0903 -0.0173
34610W        W38208  14.605   3.273   2.489 -0.0030 -0.2126 -0.3364
34611W        W38209  11.295   7.108   7.846  0.2044 -0.0799  0.1762
34612W        W38210   1.929   6.637  13.183 -0.0744  0.1506 -0.0177
34613W        W38211   0.408   1.917   3.452 -0.5179 -0.1218  0.0033
34614W        W38212  11.458  14.515   8.271 -0.0693 -0.1936 -0.2069
34615W        W38213   9.060   7.261   9.549  0.0727 -0.1161  0.0860
34616W        W38214   6.733  14.280   4.588  0.0493  0.0179 -0.3737
34617W        W38215   2.486   3.120  14.882  0.1141 -0.0019  0.0469
34618W        W38216   3.637   4.002  12.136 -0.1803 -0.1758  0.4233
34619W        W38217   2.556  15.766   0.877 -0.0697 -0.0251 -0.1634
34620W        W38218   1.591  11.783   4.801 -0.1565  0.1139 -0.1216
34621W        W38219   3.291  10.165   1.339  0.1605  0.3324 -0.0651
34622W        W38220   8.143   8.157   5.174  0.3525  0.3800  0.0218
34623W        W38221   0.199   8.553   9.376  0.3478  0.1984  0.1646
34624W        W38222  14.529   4.115   0.082 -0.0832  0.0337 -0.0113
34625W        W38223  15.453  16.292   5.089 -0.1410 -0.2499  0.5271
34626W        W38224  12.703   0.499  12.365  0.1968 -0.2348  0.1011
34627W        W38225  12.613   8.583   5.438 -0.2618  0.3997  0.3405
34628W        W38226  10.882   2.412   3.981 -0.2484 -0.2409 -0.1947
34629W        W38227   7.937   0.279  14.456 -0.0705 -0.1355  0.0578
34630W        W38228   8.252   7.896   6.818 -0.1872 -0.5175  0.0992
34631W        W38229   0.920  10.896   4.041 -0.1989  0.1338 -0.1052
34632W        W38230   7.331   2.495  11.914  0.2082  0.1625  0.1301
34633W        W38231  14.502   7.699   7.155  0.1220 -0.1891  0.1588
34634W        W38232   7.839   4.916  12.251  0.2398  0.0740 -0.0652
34635W        W38233   4.367  15.760   7.546 -0.4998 -0.0049 -0.1408
34636W        W38234   9.684  15.572   2.058  0.5216  0.2775  0.0346
34637W        W38235  11.201   9.509  10.060 -0.0324 -0.2395  0.0820
34638W        W38236   8.710  14.592  15.105  0.0210  0.1830 -0.1582
34639W        W38237  14.650  15.211  15.546  0.2887  0.5131 -0.2095
34640W        W38238   3.981  13.002   3.648 -0.1509 -0.2247 -0.0899
34641W        W38239   8.668  11.502   7.488 -0.0565 -0.0856 -0.5262
34642W        W38240   1.085   3.867  12.372  0.1686  0.1916  0.1376
34643W        W38241   2.503   5.958   6.763 -0.0117  0.0523 -0.3521
34644W        W38242   6.536  13.115   9.583 -0.1338  0.0426  0.2509
34645W        W38243   1.144  14.480   3.609  0.0985  0.1743 -0.1297
34646W        W38244   6.618  15.612   2.243  0.2722  0.1016  0.2179
34647W        W38245   8.356  15.215   5.008 -0.0741 -0.0027  0.0914
34648W        W38246   2.768  11.744  16.189 -0.0641  0.2398  0.3136
34649W        W38247  15.727   3.395   3.685 -0.2781 -0.5402 -0.1281
34650W        W38248   2.079  12.728   5.663  0.0478  0.2757 -0.0634
34651W        W38249  11.841  12.445   7.700  0.2822 -0.0590  0.2316
34652W        W38250  14.000   9.355   3.606  0.1622  0.0846 -0.0637
34653W        W38251  15.614  15.784   0.762  0.0596 -0.0171  0.2386
34654W        W38252  14.605   2.126  11.575 -0.3254 -0.3018  0.1178
34655W        W38253   7.585   4.381   2.830  0.1106 -0.1535 -0.2034
34656W        W38254  11.288  11.785   2.341 -0.0818 -0.0834 -0.0805
34657W        W38255   0.104  10.034   5.612 -0.0797  0.3494  0.0778
34658W        W38256   5.079  15.037  15.680  0.0905  0.0295  0.1381
34659W        W38257  11.046   5.921   4.023  0.0947  0.0221 -0.0485
34660W        W38258   6.369   2.058   7.699  0.0929  0.2602  0.1345
34661W        W38259  11.576  13.236   8.124  0.0545 -0.0563 -0.1753
34662W        W38260  11.363   2.688  14.183 -0.0578 -0.2379 -0.1571
34663W        W38261   8.890  13.506   2.722 -0.1912  0.1030  0.1062
34664W        W38262  11.282   9.714  11.909  0.1445  0.1927  0.3122
34665W        W38263   5.028   3.385   3.031  0.1599 -0.1714  0.3140
34666W        W38264   8.528  13.445  12.107  0.1076  0.0139  0.0032
34667W        W38265  16.172   0.802   7.220 -0.2745 -0.2049  0.1340
34668W        W38266   3.256   6.620  10.286 -0.0220  0.0576  0.0428
34669W        W38267   4.798   0.047   1.337 -0.1376  0.1864  0.3444
34670W        W38268   6.793   9.055   1.389 -0.1134  0.3152  0.0281
34671W        W38269  13.215  15.749   9.491 -0.0909 -0.2370 -0.2097
34672W        W38270   3.443   2.292  12.651  0.1966  0.1882  0.1151
34673W        W38271   6.298   4.022   5.056  0.1609 -0.1974  0.3493
34674W        W38272   6.493   9.338  14.215 -0.0311  0.3958  0.0332
34675W        W38273   7.376   7.244  12.286  0.0078  0.1148 -0.1740
34676W        W38274   9.959  10.937   6.827  0.1229  0.2075  0.1168
34677W        W38275   8.542   3.379  15.288 -0.1769 -0.1356 -0.3237
34678W        W38276  13.239   2.119   7.053 -0.0778 -0.0683 -0.0178
34679W        W38277   5.249  12.964  11.540  0.0646 -0.2393 -0.1777
34680W        W38278   6.852   8.286  16.066 -0.1101  0.1179  0.1718
34681W        W38279   6.284   7.259   4.371 -0.1006 -0.3047  0.1199
34682W        W38280  10.356  12.924   4.934 -0.2270 -0.1529 -0.0480
34683W        W38281   4.296   9.772  14.461  0.1364 -0.2973 -0.2176
34684W        W38282   1.090  13.737   0.081  0.3209 -0.1273  0.0856
34685W        W38283  12.303  11.539   5.980  0.2897 -0.1053 -0.2672
34686W        W38284   0.038  13.606   2.976 -0.0564  0.2151 -0.0285
34687W        W38285   6.088  16.230   2.259  0.0820 -0.0559  0.2816
34688W        W38286  13.302   5.979   5.465  0.0516  0.0378 -0.0060
34689W        W38287  12.096   3.169  11.141 -0.1054 -0.0341  0.0761
34690W        W38288  13.051   2.797   1.660  0.1115 -0.3667  0.1675
34691W        W38289   1.599  13.592   5.968  0.1507 -0.1377 -0.0661
34692W        W38290   0.003  13.264   0.312 -0.1832  0.0339 -0.3538
34693W        W38291   8.362  12.217  10.233  0.2108 -0.1424  0.1883
34694W        W38292   2.634   7.734   3.827 -0.0868 -0.0966 -0.1059
34695W        W38293  15.886   9.631   4.868 -0.0786 -0.0103  0.0884
34696W        W38294   7.228  10.062  14.322  0.0143  0.5012 -0.0599
34697W        W38295   4.428  13.578  12.950 -0.3403 -0.1737  0.1993
34698W        W38296   1.350   0.870   2.233  0.0462  0.0688 -0.1608
34699W        W38297   7.287   8.962  12.139 -0.1765  0.0546  0.1210
34700W        W38298  11.442   0.819   4.846  0.2929  0.0825  0.0487
34701W        W38299  15.914   3.353   2.157  0.0215 -0.3237 -0.2721
34702W        W38300  15.270   2.638   5.097 -0.0409 -0.0296 -0.0474
34703W        W38301  13.325   3.163  16.288  0.0873  0.1449 -0.0147
34704W        W38302   7.457   2.965  12.729 -0.1055  0.2176 -0.1872
34705W        W38303  13.474  15.397   8.151  0.0588  0.2035 -0.0744
34706W        W38304  11.084   7.117   3.714  0.0297  0.2095  0.0005
34707W        W38305  13.433   1.407  11.310  0.0073 -0.0686 -0.2357
34708W        W38306   9.513  14.541   0.804  0.2731  0.0282 -0.2877
34709W        W38307   5.880   1.595  10.061 -0.1083 -0.1482  0.0497
34710W        W38308   8.995  13.295  14.212  0.0968  0.1251 -0.0072
34711W        W38309   9.039   9.706   7.702 -0.2148 -0.2128  0.0937
34712W        W38310   1.341  11.100   5.146  0.0580 -0.1471 -0.0059
34713W        W38311  14.243  15.643   4.587  0.1899 -0.0314  0.2154
34714W        W38312   9.925   9.542   2.223  0.0991 -0.1316  0.4849
34715W        W38313   5.476   8.366  10.327  0.0120 -0.1730 -0.0833
34716W        W38314  13.274   6.435  15.275 -0.2705  0.0323  0.0211
34717W        W38315   3.537  10.594   1.385  0.1606  0.1063  0.0101
34718W        W38316   5.425   0.660   3.479  0.0563 -0.1026 -0.1162
34719W        W38317  14.889   8.957   5.694 -0.1816 -0.0176 -0.0022
34720W        W38318   3.453  13.590  16.033  0.3495  0.0999 -0.2002
34721W        W38319  11.857  15.883  12.249  0.0482 -0.2074 -0.2283
34722W        W38320   4.639   9.352  16.279 -0.2852 -0.0112 -0.2252
34723W        W38321  13.891  12.632   6.753 -0.0251  0.1552 -0.0417
34724W        W38322  14.932   9.476  11.668  0.1138  0.0915  0.0041
34725W        W38323   5.399   6.425   1.432  0.2713  0.0714 -0.1390
34726W        W38324   1.425   1.148   4.058 -0.0710 -0.2372  0.0111
34727W        W38325   1.084   8.173  10.027  0.0898 -0.0823  0.2503
34728W        W38326   0.907  11.689   1.142 -0.0968 -0.0631 -0.2158
34729W        W38327  16.320  14.710  13.376  0.2581 -0.2560 -0.2981
34730W        W38328  15.320   5.256   7.830  0.1481  0.2135 -0.0751
34731W        W38329  15.846   9.019   4.250 -0.1987 -0.0220  0.1243
34732W        W38330   6.298   1.295   4.591  0.1347  0.2244  0.0340
34733W        W38331   2.811   7.173  10.420 -0.0505 -0.2552 -0.1662
34734W        W38332   2.945   6.907  15.537  0.1999  0.1102 -0.0989
34735W        W38333   2.462   8.953  15.402  0.1180 -0.2238 -0.0425
34736W        W38334  15.846  13.201  15.338 -0.0752  0.3395  0.1481
34737W        W38335   8.553   1.308   6.239  0.0392  0.2443  0.4513
34738W        W38336   3.278   0.304   5.168 -0.0070 -0.2529  0.2245
34739W        W38337  12.106   6.222  12.591  0.3528 -0.5058 -0.1406
34740W        W38338  11.880   7.942   9.337 -0.0444 -0.0169 -0.0435
34741W        W38339   3.336   9.170   9.944 -0.5000  0.0928  0.1080
34742W        W38340   2.716   7.130   6.055  0.0070 -0.1229  0.2045
34743W        W38341   5.424   5.189   6.204 -0.0813  0.0823  0.1237
34744W        W38342   8.717   5.589   5.260  0.0366  0.0280 -0.0957
34745W        W38343   2.247  14.471  13.299 -0.2637 -0.0739 -0.3217
34746W        W38344   3.380   0.862  11.849 -0.3694  0.2294  0.2549
34747W        W38345   0.485   4.518   0.743  0.0587 -0.1871 -0.1295
34748W        W38346  11.060  13.617  14.205 -0.1060 -0.1411  0.0938
34749W        W38347   7.140   9.884   4.616  0.0633  0.0466  0.1562
34750W        W38348  13.905  12.105   1.585  0.0114 -0.2482 -0.0234
34751W        W38349   0.715  13.596  10.023  0.1656  0.1134 -0.1510
34752W        W38350   7.385   4.240   8.523  0.2174  0.0509  0.2337
34753W        W38351   2.629  13.791   6.143  0.0506  0.3490  0.0694
34754W        W38352   2.998   4.048  14.664 -0.1333 -0.1530 -0.0915
34755W        W38353  14.195   2.296   5.368  0.1975 -0.0586  0.0446
34756W        W38354   6.414  14.917   6.034 -0.0031 -0.0821  0.0132
34757W        W38355  14.035   1.203   9.179  0.1870  0.0177 -0.3305
34758W        W38356   1.185   5.803   5.401  0.1890  0.2704 -0.3171
34759W        W38357  15.702  15.359   3.832 -0.1711 -0.0223  0.1672
34760W        W38358   4.312  12.115   4.923  0.0444  0.0460 -0.1129
34761W        W38359   5.958  12.069   2.723 -0.1003 -0.1549 -0.1071
34762W        W38360  11.236   3.787   8.856  0.1744  0.4243  0.1700
34763W        W38361   4.842   9.326   4.252 -0.1566 -0.0544  0.1384
34764W        W38362  11.670  12.025  13.285 -0.0396 -0.0104  0.3946
34765W        W38363  13.721   4.822  14.216  0.0893 -0.1901 -0.1923
34766W        W38364  12.364   7.487  10.248 -0.4626 -0.0752  0.2386
34767W        W38365  11.231   4.481   7.324  0.2238 -0.1088 -0.2455
34768W        W38366  10.765   8.044   2.478 -0.0446  0.1522 -0.0167
34769W        W38367   3.614   9.338   3.597  0.2992  0.2535  0.1650
34770W        W38368   8.434   0.091  14.730  0.2187 -0.0065  0.2694
34771W        W38369   4.175   3.134  10.881 -0.3195 -0.0895  0.0589
34772W        W38370   3.652   0.317   3.048 -0.1733  0.0688  0.0920
34773W        W38371   4.609   1.023   2.187 -0.2323 -0.2313 -0.2600
34774W        W38372  16.381  13.848  12.591  0.1689 -0.0980  0.1247
34775W        W38373   9.917   9.095  12.041 -0.3964 -0.3550  0.0494
34776W        W38374   1.696   1.957  16.091 -0.0268  0.0047 -0.1156
34777W        W38375   1.730   7.590  10.329 -0.0323  0.2919 -0.3251
34778W        W38376  11.689   7.323   1.013  0.2180 -0.0539  0.2204
34779W        W38377   6.525   1.577   7.933 -0.1493  0.0120  0.1260
34780W        W38378   2.387  12.651  12.722  0.0063 -0.1772  0.1006
34781W        W38379  12.662  15.525   0.438  0.2721  0.5321 -0.0085
34782W        W38380   8.387   8.371   2.373 -0.2718 -0.0511 -0.0896
34783W        W38381   8.659   3.196   1.101  0.1864  0.2174 -0.1864
34784W        W38382   7.848  12.643   1.502 -0.0033  0.1566  0.1243
34785W        W38383   8.258   9.916  10.650 -0.0175  0.0431 -0.1769
34786W        W38384   6.639   1.188   7.337  0.1913 -0.0425 -0.1031
34787W        W38385   1.791   3.550   6.075  0.0172  0.0914  0.2090
34788W        W38386   8.008   2.031   0.549  0.0609 -0.2794 -0.0724
34789W        W38387  11.813   1.088   1.426 -0.3222 -0.0569  0.0260
34790W        W38388   4.414  10.557  13.667  0.0645  0.0839  0.1733
34791W        W38389  14.471  14.584   8.790  0.2719 -0.0288 -0.1384
34792W        W38390   1.963  16.018   9.943 -0.1958 -0.0804  0.1640
34793W        W38391   0.193  14.777   0.203 -0.2954 -0.0646 -0.0129
34794W        W38392   9.880  10.066  10.152  0.2328  0.0736  0.1442
34795W        W38393  10.669  11.801  12.391 -0.0801 -0.1941 -0.0320
34796W        W38394  16.028   4.049  11.607  0.2205  0.0632  0.0099
34797W        W38395   4.387  16.010   5.328 -0.1449  0.1812  0.2390
34798W        W38396  10.548  10.131  13.155 -0.0302 -0.1467 -0.0265
34799W        W38397  11.845  10.439   0.482  0.0812  0.0833  0.3196
34800W        W38398   0.130  13.153   4.686 -0.2663  0.0440 -0.1423
34801W        W38399   6.020   8.413  15.863 -0.1424 -0.2288 -0.0842
34802W        W38400  13.706   2.994  10.440 -0.1733 -0.0705 -0.0706
34803W        W38401   6.264   8.336   3.089  0.0457  0.1892  0.0138
34804W        W38402   7.120   1.653   5.650  0.1919 -0.2029  0.1994
34805W        W38403   8.371   7.678   6.139 -0.0106 -0.3960 -0.0666
34806W        W38404   3.492   4.289  13.193 -0.0267  0.0736  0.0281
34807W        W38405  11.199   8.867   4.518 -0.0353  0.1927  0.3786
34808W        W38406   4.709  10.345  12.087  0.1305 -0.1467  0.1615
34809W        W38407  13.898  13.546   3.967 -0.0707  0.2366  0.0890
34810W        W38408   2.833  12.905   4.216 -0.0051 -0.0445  0.0288
34811W        W38409   6.959   8.335   4.148 -0.2114 -0.0521 -0.0723
34812W        W38410   1.560  12.249   2.704  0.1759  0.0868  0.0778
34813W        W38411   7.253   4.069  12.454 -0.2542 -0.0783 -0.2602
34814W        W38412  15.731   5.239   0.598  0.0210 -0.2427  0.0193
34815W        W38413   2.349   6.066  15.540 -0.1325  0.2288 -0.0341
34816W        W38414  10.889  10.577  11.107 -0.3164 -0.0326 -0.2294
34817W        W38415   9.665   8.817  16.224  0.0583 -0.0594  0.3426
34818W        W38416  16.117   2.757   7.764 -0.2474  0.0487 -0.0628
34819W        W38417  15.729   8.297   4.978  0.3108 -0.0570  0.1135
34820W        W38418   8.407  10.424  12.320  0.1668 -0.1242 -0.2450
34821W        W38419   2.315  10.669   2.097  0.1936 -0.1377  0.2223
34822W        W38420  11.071   6.103  15.140 -0.0401  0.0339  0.1309
34823W        W38421   5.108  13.849   1.726 -0.0942 -0.2814  0.0078
34824W        W38422   2.983   2.501   2.398 -0.2589 -0.2542  0.2786
34825W        W38423  15.392  11.438   0.163 -0.1773  0.1675 -0.0504
34826W        W38424   8.215  15.764  14.479  0.1298 -0.1483  0.0226
34827W        W38425   6.491   8.758   9.739 -0.1849 -0.2324 -0.0196
34828W        W38426  14.154   3.698   6.460 -0.4634 -0.0235  0.3801
34829W        W38427   8.624   8.537   9.496  0.3407  0.0850 -0.0744
34830W        W38428   0.080  10.920   4.999 -0.0975 -0.1223  0.2975
34831W        W38429  15.995  12.987   0.172  0.0592 -0.2940 -0.1071
34832W        W38430   7.798   7.976   9.411  0.1915  0.1920  0.1814
34833W        W38431   6.908   8.786   8.924 -0.1227 -0.0014 -0.0034
34834W        W38432   8.168   8.701  13.933 -0.0957  0.0084  0.2379
34835W        W38433   7.712   4.338   9.479  0.2350 -0.1971  0.1550
34836W        W38434  12.372   9.912   3.495  0.1102  0.4597  0.0833
34837W        W38435  16.279  13.278  15.111  0.2297 -0.2882  0.3143
34838W        W38436   5.084  13.266   9.466  0.0803  0.0955 -0.1047
34839W        W38437  14.944   8.550  10.803 -0.0681 -0.1223  0.0102
34840W        W38438   9.294   6.827   5.223 -0.2899  0.0137  0.4064
34841W        W38439  11.625   4.688  15.545  0.0294  0.0228  0.4194
34842W        W38440  10.129   8.611   8.882 -0.0466  0.1063  0.2021
34843W        W38441   8.683   8.737   4.842 -0.0137 -0.0517 -0.1844
34844W        W38442  11.072  15.764   6.706  0.3710  0.0650 -0.2468
34845W        W38443   2.267   2.154   9.414 -0.1900 -0.1355  0.0422
34846W        W38444   3.212   8.460   4.035  0.0823 -0.0883 -0.1952
34847W        W38445   7.990  16.340  13.081  0.0316  0.1916 -0.1376
34848W        W38446  13.027  12.753  12.940 -0.2424  0.1817  0.1310
34849W        W38447   2.957   1.899   8.863 -0.0288  0.0943  0.2114
34850W        W38448   7.497   9.504   6.877  0.2312  0.1291 -0.0905
34851W        W38449  15.041  15.853  14.255 -0.0365 -0.2314  0.0557
34852W        W38450  12.995   1.495   9.128  0.0662  0.4586 -0.1416
34853W        W38451   3.687  11.987   8.158 -0.1065 -0.2802 -0.0115
34854W        W38452   9.556  16.064   8.464 -0.0506 -0.1919 -0.1127
34855W        W38453  10.226   8.210   8.432 -0.0815 -0.1916  0.0265
34856W        W38454   2.804  15.323  12.229  0.0705  0.1360  0.3614
34857W        W38455   3.443   3.775  11.100  0.0220  0.2670  0.1240
34858W        W38456   2.773  15.602   1.426  0.3088 -0.3463  0.0678
34859W        W38457   3.725   5.507   7.513 -0.2066  0.0199  0.0059
34860W        W38458  10.665  15.381  14.752 -0.1001 -0.1257  0.2378
34861W        W38459   6.372  11.385  11.144 -0.0782  0.3938 -0.0429
34862W        W38460  13.482   1.583   6.933 -0.0696 -0.1706  0.2647
34863W        W38461   9.953   1.744   7.404 -0.0380 -0.2436 -0.1059
34864W        W38462  14.711   4.543  15.773  0.0999  0.0190 -0.0374
34865W        W38463   8.548   1.698   5.173 -0.1960  0.0233 -0.2899
34866W        W38464   7.101   3.721   6.459 -0.1571 -0.0422 -0.1077
34867W        W38465  14.694   2.755  12.799 -0.1002 -0.3225 -0.0718
34868W        W38466   8.171   1.206   3.497  0.1940  0.2063 -0.0890
34869W        W38467   9.509  14.043   6.674 -0.0624  0.1403 -0.1768
34870W        W38468   4.849  15.509  11.079  0.0364  0.2122 -0.0078
34871W        W38469  16.239  16.349   1.663  0.3460  0.3298 -0.0952
34872W        W38470   9.661  11.752  13.687  0.0742  0.1246 -0.1668
34873W        W38471   1.565   1.450   4.761  0.1560 -0.0520  0.1752
34874W        W38472  10.131   9.732   0.493 -0.1690  0.4102 -0.0228
34875W        W38473   5.535  15.312   5.395 -0.3022  0.0668  0.1221
34876W        W38474  15.869   1.328   5.530 -0.0736 -0.2916 -0.0454
34877W        W38475  12.530   4.972  16.223 -0.0051 -0.0460 -0.2303
34878W        W38476   6.962  15.187   0.517  0.1414  0.0044 -0.0171
34879W        W38477  12.517  14.174   7.760 -0.0248  0.0526 -0.0148
34880W        W38478   6.953   8.213   1.786  0.0224  0.1750 -0.1143
34881W        W38479   6.915  13.651   0.527 -0.0326 -0.0122  0.2225
34882W        W38480   5.875   4.058  10.832 -0.0878 -0.3195  0.2110
34883W        W38481   5.760   5.585   0.395 -0.1410  0.2358 -0.1260
34884W        W38482   0.898   8.591  14.165  0.4070  0.3230 -0.1354
34885W        W38483   4.653  12.010   9.540 -0.0767  0.1005 -0.0629
34886W        W38484  13.231  12.793   7.462 -0.1523 -0.1797  0.0668
34887W        W38485   4.044   1.523   9.578 -0.1175 -0.1753 -0.0058
34888W        W38486   3.200   6.548   1.478  0.1415 -0.2898  0.2067
34889W        W38487   4.580   1.667   5.736  0.0785 -0.3786 -0.1529
34890W        W38488   8.396  13.906   1.952 -0.0758 -0.2272 -0.1569
34891W        W38489  15.787   9.646  12.791  0.0420  0.1335  0.2499
34892W        W38490  10.336   6.221   1.392 -0.2723  0.1723  0.1306
34893W        W38491   5.605  11.774   8.536  0.2049 -0.2581  0.0289
34894W        W38492   4.168  10.708  10.340 -0.0630  0.4854  0.0867
34895W        W38493   6.155  13.450   7.886  0.0067 -0.0578 -0.0072
34896W        W38494   6.796  16.088  14.914  0.1765 -0.0837  0.1162
34897W        W38495  13.054  10.496   3.403 -0.2478  0.0790  0.1084
34898W        W38496  15.234  11.322   5.172  0.0432  0.4338 -0.1428
34899W        W38497   4.926   7.487   3.440  0.1252 -0.1145 -0.1430
34900W        W38498  14.174  11.890   8.127 -0.0042  0.2360 -0.3207
34901W        W38499  12.487   5.378   2.491 -0.1342 -0.1666  0.0296
34902W        W38500  12.912  14.812  11.077 -0.2902 -0.1064 -0.0146
34903W        W38501   1.108  10.871  12.887 -0.3110  0.2259 -0.2513
34904W        W38502   6.329  12.468   2.201  0.0789  0.2011 -0.0446
34905W        W38503   9.247   5.773   2.713  0.2006 -0.1202 -0.0444
34906W        W38504  15.481   6.485   1.086  0.2656 -0.0169  0.1062
34907W        W38505  12.804   4.084   8.008 -0.0978  0.0170  0.0515
34908W        W38506   8.647   8.455   0.126  0.3766  0.0141  0.0960
34909W        W38507   9.340   1.955   0.043  0.3212 -0.0694  0.1841
34910W        W38508   7.340  11.624   2.012  0.2476 -0.0285 -0.1408
34911W        W38509   7.431  10.645  13.885 -0.0372 -0.0915 -0.2240
34912W        W38510  14.417   1.869   8.708  0.0417 -0.4637 -0.0443
34913W        W38511   6.303  10.404   0.416  0.0925 -0.1361  0.0727
34914W        W38512   1.400   9.770  10.353 -0.0875 -0.2984 -0.4534
34915W        W38513  12.552  11.564   2.771 -0.1895 -0.2576  0.0047
34916W        W38514   7.608   1.839  15.102 -0.0473 -0.0515  0.0568
34917W        W38515  13.043  15.713  12.143  0.1694 -0.2651  0.0876
34918W        W38516  14.810  12.868   8.799  0.1257  0.1964  0.2096
34919W        W38517   1.278   6.956   8.833 -0.0910 -0.1803  0.1488
34920W        W38518   0.892   6.501  15.169 -0.0076  0.3557 -0.0780
34921W        W38519   5.944   6.076   6.412  0.0419  0.0695 -0.1693
34922W        W38520  10.155  14.578  13.335  0.3897 -0.1023  0.0554
34923W        W38521   6.233   3.608  14.104  0.1845  0.1441  0.1183
34924W        W38522  10.738   4.956   6.320  0.1379 -0.2261  0.1265
34925W        W38523   9.723   1.388   5.649 -0.0487  0.4274  0.2196
34926W        W38524  13.063  12.773   8.249 -0.2141 -0.0632 -0.0565
34927W        W38525  13.271  12.771  15.535  0.0712  0.1060 -0.0921
34928W        W38526  13.387  16.115  11.409  0.0499 -0.0786  0.1585
34929W        W38527   9.341   2.661  10.351  0.3051  0.2483  0.1172
34930W        W38528  13.861  14.209  11.653 -0.0937 -0.2116 -0.2275
34931W        W38529  11.189   9.038  10.317 -0.1885 -0.3185  0.0595
34932W        W38530  13.124   1.624   3.343 -0.1360  0.4794  0.0203
34933W        W38531  10.241   1.306  11.283 -0.1952 -0.1695 -0.3115
34934W        W38532  12.369   7.467   1.685 -0.0561 -0.1599 -0.4006
34935W        W38533   5.672  13.878   1.624 -0.0426  0.2310 -0.1871
34936W        W38534   8.717  15.724  16.040 -0.2550 -0.1795 -0.0567
34937W        W38535   4.745  12.083   0.815 -0.1145  0.2585  0.1986
34938W        W38536  15.360  11.250   8.025  0.0676 -0.2501  0.2154
34939W        W38537   9.622  13.814  11.475  0.3805  0.2749 -0.2136
34940W        W38538   9.150   5.961  15.371 -0.0322  0.1627 -0.2198
34941W        W38539   4.562   5.335  15.052 -0.0783 -0.4617 -0.2872
34942W        W38540   4.643   4.324   9.644  0.0531 -0.1225 -0.0024
34943W        W38541   4.826  10.319   0.965  0.1995  0.1133 -0.1726
34944W        W38542   7.449   0.688   2.054  0.3393  0.2163 -0.1414
34945W        W38543   5.259  15.129  10.345  0.1472  0.0578 -0.1010
34946W        W38544   9.638   3.619   9.253 -0.0035  0.0812  0.0955
34947W        W38545   9.193   4.296   3.271  0.0532  0.2310 -0.0206
34948W        W38546   6.450   5.946  12.112  0.0607  0.0589  0.0733
34949W        W38547   6.540   5.528  13.156 -0.2104 -0.4421 -0.0244
34950W        W38548   1.788   0.341   1.652  0.1907 -0.2897 -0.1627
34951W        W38549  12.221  16.381   0.842 -0.3061  0.0026 -0.1069
34952W        W38550   5.045   4.851   3.641 -0.3144  0.0758  0.2583
34953W        W38551  15.820  16.355   4.733 -0.1314  0.1534  0.1663
34954W        W38552   1.042  14.706   7.935  0.3215 -0.0485  0.2051
34955W        W38553   8.127  11.673   4.405  0.1095 -0.1607  0.3629
34956W        W38554  16.051   7.215   2.187 -0.2878  0.0813  0.2059
34957W        W38555   6.090  10.974  12.771  0.4548 -0.2891 -0.0987
34958W        W38556   7.279  11.146   4.219 -0.0374  0.0202  0.0725
34959W        W38557  16.286  14.860   2.307 -0.0947  0.1654  0.1631
34960W        W38558  15.493  16.309  10.761 -0.3593  0.0783 -0.1873
34961W        W38559   9.281   3.333  15.815 -0.1066  0.0993 -0.0264
34962W        W38560   5.735   2.944   7.668 -0.2643  0.0252  0.2988
34963W        W38561   3.761   0.432   2.513  0.0384  0.0619 -0.0628
34964W        W38562  10.297  10.164  14.960 -0.1142  0.1294 -0.0861
34965W        W38563  11.885   5.292  13.041  0.0217 -0.2075  0.0259
34966W        W38564  10.473   3.713  15.098  0.0184 -0.1141  0.0337
34967W        W38565   9.824  13.902  15.411 -0.0352 -0.0658  0.0259
34968W        W38566   0.896   7.065  13.064  0.0033 -0.2504 -0.2654
34969W        W38567   0.831   6.267  11.878 -0.2555  0.0154  0.0083
34970W        W38568   1.523  15.703   6.110 -0.1403  0.0338  0.2887
34971W        W38569  14.378  14.934   0.067  0.0818 -0.1189 -0.0697
34972W        W38570   5.084  11.692  12.562  0.0883  0.1186  0.2564
34973W        W38571  16.336   5.495  11.889 -0.1369 -0.0191  0.2705
34974W        W38572   8.077   1.070   2.158 -0.1631  0.2022  0.1457
34975W        W38573  15.280   9.681   2.162  0.0583 -0.2649  0.0010
34976W        W38574  14.100   7.524  10.705  0.1582 -0.3603 -0.0091
34977W        W38575   4.329  14.172  12.314 -0.1141 -0.1376  0.3396
34978W        W38576   1.323   4.649  12.346 -0.1698 -0.2673 -0.2192
34979W        W38577  15.173  15.085  14.847  0.1187  0.0794 -0.1005
34980W        W38578   2.593   2.447  14.545 -0.1463  0.0849 -0.1861
34981W        W38579  13.081  15.663   5.909  0.1431  0.0592 -0.2504
34982W        W38580  10.442  15.428   8.336  0.2355 -0.1198  0.0217
34983W        W38581  10.724   7.766   9.867 -0.3021 -0.1281  0.2070
34984W        W38582  10.653  13.220   6.751  0.0612 -0.1577 -0.2327
34985W        W38583  10.598  10.644   5.558  0.1441  0.1613  0.1187
34986W        W38584   4.452   7.405   3.935 -0.3057  0.0914  0.2631
34987W        W38585  13.303   9.865   6.979 -0.3565 -0.2544  0.0292
34988W        W38586   5.909  15.119   8.286 -0.1640  0.2120  0.2679
34989W        W38587  12.203   6.697   1.061 -0.1737 -0.1573  0.2773
34990W        W38588  15.906   1.697  15.974 -0.0853 -0.1377 -0.3580
34991W        W38589  11.857   6.573  11.358  0.2631 -0.1323  0.0848
34992W        W38590   1.816  13.271   7.428  0.2298 -0.0881  0.0131
34993W        W38591   2.887   9.330   6.941  0.0705  0.0925 -0.2974
34994W        W38592   3.714  15.235  10.159 -0.0089 -0.0610  0.0201
34995W        W38593  14.592  15.863   6.822 -0.1838 -0.1867  0.3467
34996W        W38594   0.474   2.434   3.457  0.0447 -0.0745 -0.4134
34997W        W38595   2.581  14.311  12.104  0.0813 -0.2773 -0.1138
34998W        W38596   3.239   9.401   5.591  0.0951 -0.1007 -0.2078
34999W        W38597   2.230  13.516   9.602  0.2353 -0.2804  0.0205
35000W        W38598   3.736   2.780   9.541  0.2340 -0.2275 -0.2035
35001W        W38599  16.081  16.018   2.159 -0.2748  0.0891  0.4504
35002W        W38600   3.391   1.655   8.861 -0.2609 -0.1710 -0.1753
35003W        W38601  15.324   8.569   7.961 -0.0523 -0.2716  0.2623
35004W        W38602  15.185  11.032   3.947  0.2896 -0.1100 -0.0558
35005W        W38603   2.671  14.765  15.115 -0.2103  0.1496 -0.2133
35006W        W38604   9.019   4.114   6.401  0.2318 -0.1859  0.0548
35007W        W38605  12.328  15.480  14.745  0.1938 -0.1229 -0.0614
35008W        W38606   3.418  14.515   6.464  0.1606 -0.2997 -0.1667
35009W        W38607   2.727   4.237   5.267 -0.0130 -0.0912 -0.1032
35010W        W38608   3.515   3.242   0.110 -0.1392 -0.0654 -0.0630
35011W        W38609   4.262  11.988   2.182 -0.2824  0.1040  0.2606
35012W        W38610   1.691   5.333   1.806  0.0014 -0.2388 -0.3814
35013W        W38611  16.266   2.772   1.569 -0.2536 -0.0011 -0.0022
35014W        W38612  13.606   8.661   8.416  0.2642 -0.3285 -0.0113
35015W        W38613   6.619  13.022  16.343  0.1804 -0.2389  0.0387
35016W        W38614   8.134   0.922   6.077  0.1563 -0.0161 -0.1920
35017W        W38615   5.375   9.066  15.629 -0.4254 -0.0810 -0.0208
35018W        W38616   5.630   2.774   8.501 -0.0041 -0.3463 -0.0885
35019W        W38617   7.316   2.460   6.372 -0.0780 -0.3657  0.1555
35020W        W38618   6.596   0.526   3.740 -0.1070  0.0399 -0.0160
35021W        W38619   8.841   7.251   1.020  0.2246  0.2525 -0.1151
35022W        W38620   8.366   1.704  11.358  0.1983 -0.1318 -0.4935
35023W        W38621  14.129  11.931  12.505  0.1716 -0.3230 -0.1337
35024W        W38622   4.057  12.455   0.255 -0.1581  0.1837 -0.0353
35025W        W38623   8.199   0.741  14.495 -0.0509  0.1137 -0.0494
35026W        W38624   5.140   6.006   7.302  0.1370  0.3781  0.1007
35027W        W38625   3.872  12.377   5.154 -0.1187 -0.0530 -0.3193
35028W        W38626   2.785   3.753   5.102 -0.1190 -0.0826  0.0244
35029W        W38627   3.193   9.743  12.444 -0.2239 -0.0589 -0.2294
35030W        W38628  15.905  12.416   9.311  0.0218 -0.0265  0.4467
35031W        W38629   1.597   5.031   2.177  0.0723 -0.0676 -0.0492
35032W        W38630  11.678   5.857   6.093 -0.1410 -0.0831  0.0181
35033W        W38631   1.418   7.823  10.905  0.1947  0.1112  0.0738
35034W        W38632   0.441  13.224   6.469 -0.2547  0.2278  0.0036
35035W        W38633  11.991  15.378   7.310  0.1530 -0.1088  0.0726
35036W        W38634  13.347  10.982   8.455 -0.1535 -0.1254  0.1235
35037W        W38635  14.670  11.996   5.470  0.4073  0.0302 -0.1017
35038W        W38636  14.274   7.674   5.334  0.1804  0.1169  0.1609
35039W        W38637   0.154  16.392  15.077 -0.1601 -0.4256 -0.1718
35040W        W38638  10.998  12.870   8.896 -0.0287  0.0973  0.1800
35041W        W38639   1.736   7.477   0.866 -0.0224  0.0112  0.0310
35042W        W38640  16.244  11.457   2.573  0.1145  0.0580  0.2165
35043W        W38641   4.427  11.899  13.918  0.3107 -0.2295  0.2525
35044W        W38642   9.793  11.160   0.580  0.0833  0.1240 -0.0518
35045W        W38643   1.599  11.244   3.264  0.0864  0.3156 -0.1006
35046W        W38644  15.138  13.599   0.292  0.1757 -0.4249 -0.1436
35047W        W38645   8.537  10.771   3.400 -0.2107 -0.0158 -0.0694
35048W        W38646   1.151   9.249   5.455 -0.2626  0.1894  0.0028
35049W        W38647  12.512   3.063   4.660 -0.2350 -0.0238 -0.0037
35050W        W38648   9.955  11.310   3.501  0.1661 -0.0153  0.0434
35051W        W38649  10.957  14.043   1.079 -0.2046  0.1046  0.3406
35052W        W38650  11.295  15.832   1.416 -0.0235 -0.2681 -0.1123
35053W        W38651   1.701   5.102   1.259  0.2284 -0.0930 -0.0647
35054W        W38652   4.951   5.557   3.196  0.0555  0.1194 -0.0382
35055W        W38653  15.079  12.335  11.494  0.2279  0.2466  0.0983
35056W        W38654   5.891  14.454   6.182 -0.0156 -0.0640  0.2250
35057W        W38655   3.482   2.006  10.099  0.1925  0.1609  0.2365
35058W        W38656  13.637  14.154   1.381 -0.0364 -0.0801  0.1296
35059W        W38657   4.498   6.324  15.716  0.0006 -0.1755 -0.1495
35060W        W38658   4.454   7.540   5.872 -0.2056 -0.5299  0.0639
35061W        W38659   4.647   5.981   7.035  0.0165 -0.0497 -0.2177
35062W        W38660   9.823   4.263  10.178 -0.0798  0.0269  0.2044
35063W        W38661  11.669   5.573   8.439 -0.4015 -0.0711 -0.3480
35064W        W38662   5.615   0.232  12.927 -0.3860  0.2974 -0.2668
35065W        W38663   9.244   3.112   2.452 -0.1250  0.0060 -0.4579
35066W        W38664  12.060   2.858  12.561 -0.0009 -0.1970  0.2482
35067W        W38665   2.210  13.612   5.884 -0.0623  0.1055 -0.0811
35068W        W38666   8.375  15.967   3.707  0.2259  0.1989 -0.1000
35069W        W38667  12.792   3.506   7.095 -0.0633  0.0576 -0.0014
35070W        W38668  10.730  11.933  11.180 -0.2746 -0.1381  0.1279
35071W        W38669   2.376   9.027   3.992 -0.2698 -0.4096 -0.2201
35072W        W38670  11.884  14.017  12.918  0.1770  0.3379 -0.1510
35073W        W38671  12.835   4.828   0.275  0.1453  0.0830 -0.1070
35074W        W38672  11.374   9.928   9.878  0.1949  0.0258 -0.1521
35075W        W38673  16.305   7.693   9.895  0.0992 -0.1132  0.1002
35076W        W38674   1.991  14.382   6.340 -0.1295  0.0907 -0.2545
35077W        W38675  11.838   3.483   4.172  0.0568 -0.2448  0.0556
35078W        W38676   2.716  11.582  14.357  0.2825 -0.1956  0.2525
35079W        W38677   1.600  13.987  13.606 -0.1695  0.0472  0.2109
35080W        W38678  11.923   9.403   0.837 -0.1458 -0.2580  0.2256
35081W        W38679  10.496   2.229   6.793  0.0951  0.0679  0.3239
35082W        W38680  14.007   2.100   8.826  0.2234  0.0539 -0.1641
35083W        W38681  15.585  13.939   2.647  0.1654 -0.1482  0.2023
35084W        W38682  13.316  15.657   8.550  0.2287  0.3211  0.3659
35085W        W38683   0.812   3.932  12.776  0.3180  0.1462 -0.3502
35086W        W38684   9.901  10.921  13.765  0.1677 -0.3345  0.1923
35087W        W38685   5.115  10.829   7.679  0.2073 -0.0574 -0.0006
35088W        W38686   9.735   0.484  12.256  0.0561  0.0130  0.1281
35089W        W38687   7.360  15.701   4.225  0.0103  0.2478  0.0419
35090W        W38688   5.401  14.727   2.206  0.0474 -0.1834 -0.2864
35091W        W38689   4.342  11.071  10.593 -0.1370 -0.0762  0.1139
35092W        W38690   3.025  11.330   6.436 -0.1269 -0.2492 -0.0433
35093W        W38691  11.719   3.823  13.375  0.1938  0.0042 -0.0219
35094W        W38692  11.495   3.758   2.682  0.2900 -0.0721 -0.1743
35095W        W38693   7.205   0.198   2.112 -0.1166 -0.2323  0.1969
35096W        W38694   8.801  15.291   7.325 -0.3449 -0.1228 -0.1480
35097W        W38695  11.334   4.881   1.196  0.1608  0.0175  0.1374
35098W        W38696   5.610   8.865   5.402  0.1992 -0.1372 -0.0385
35099W        W38697   0.973  15.819   3.693 -0.0230  0.1809  0.0072
35100W        W38698  13.275   6.609   6.792  0.1694  0.1062 -0.0423
35101W        W38699   9.374   3.976   9.076 -0.3018  0.0805 -0.0539
35102W        W38700  10.728   2.170  11.681 -0.2640  0.1294  0.1210
35103W        W38701   7.333   5.329   6.357  0.4249 -0.0569 -0.3075
35104W        W38702   6.563   4.710   6.709  0.2689  0.0350 -0.2364
35105W        W38703  16.138   8.578  10.131  0.0582  0.0694 -0.0062
35106W        W38704  11.474  13.604   4.638 -0.1757  0.0607 -0.0013
35107W        W38705   2.647  10.293   8.058 -0.0604  0.1805 -0.0193
35108W        W38706   8.766  13.635   6.758 -0.0776 -0.3447 -0.0462
35109W        W38707  13.142   0.684   8.281 -0.0960 -0.1148  0.1142
35110W        W38708   5.748  12.336  15.300  0.1633 -0.0679 -0.0053
35111W        W38709  10.323   6.827   9.006  0.0139  0.0666 -0.2460
35112W        W38710   1.007   3.921   8.746 -0.1433  0.0225 -0.0777
35113W        W38711  13.687   5.013   8.981 -0.1345  0.0934  0.4030
35114W        W38712  10.255   9.237  14.955  0.1181 -0.0045 -0.1934
35115W        W38713  14.496  11.018  12.297  0.2189  0.0297  0.3668
35116W        W38714  12.572   1.527   0.675 -0.1508  0.0044 -0.1646
35117W        W38715   6.009   9.915  10.459 -0.0512 -0.2367 -0.0165
35118W        W38716  11.693   4.826  11.631 -0.0210 -0.1890 -0.0572
35119W        W38717   4.568  13.410   9.311 -0.1757  0.0689  0.1673
35120W        W38718   5.488  11.499   8.153  0.1522  0.0721  0.1316
35121W        W38719  13.131  13.209   4.988 -0.1778  0.0564  0.0440
35122W        W38720  10.446  12.201  14.054 -0.0090 -0.2185  0.1953
35123W        W38721  13.521  10.999   7.980 -0.3113 -0.0754 -0.0965
35124W        W38722   0.572  11.179   7.656  0.3762  0.2259 -0.1098
35125W        W38723   9.845   3.608   0.918 -0.0206  0.1148  0.0752
35126W        W38724  16.326   7.617   1.956 -0.0493  0.1594  0.2172
35127W        W38725  10.275   0.422  10.937  0.0446 -0.0244  0.1938
35128W        W38726   3.413  11.781  10.801 -0.2242  0.0855  0.0552
35129W        W38727   7.457  15.371   8.092  0.1551  0.3081 -0.0194
35130W        W38728   1.801   8.615  11.374 -0.0291  0.1184 -0.3014
35131W        W38729  10.209   1.242   2.701 -0.0580  0.2503 -0.0362
35132W        W38730   1.317   1.613  16.023 -0.0030 -0.2032  0.0695
35133W        W38731   2.972   1.032   2.061 -0.0252 -0.0812  0.1230
35134W        W38732  11.579  15.761   3.264  0.3211  0.3004  0.2244
35135W        W38733   2.120   1.811  11.530  0.0425 -0.0046 -0.0879
35136W        W38734  12.800   3.852   4.295  0.0783  0.1102 -0.0845
35137W        W38735  11.298  11.421   8.139  0.0892 -0.1879  0.0914
35138W        W38736   0.163   9.021   9.000  0.2188 -0.1844 -0.0384
35139W        W38737  13.254   2.493   9.395 -0.1054  0.0946 -0.1500
35140W        W38738   5.014   0.162   7.551 -0.1550  0.0660  0.0186
35141W        W38739   6.521   8.771  12.780  0.1638  0.0346  0.2140
35142W        W38740  10.114  10.279   7.485  0.0845  0.1608  0.1368
35143W        W38741  10.919   1.651  13.119 -0.0083 -0.0868 -0.0798
35144W        W38742   7.211   9.655   6.258  0.1377 -0.2764  0.2449
35145W        W38743  10.507   1.017   4.168  0.2807 -0.1844 -0.1067
35146W        W38744  14.933   5.584  14.155  0.1994 -0.1934  0.0224
35147W        W38745   4.730  10.319  14.513  0.5150 -0.1859 -0.0055
35148W        W38746  10.601  11.545  16.100 -0.0132 -0.2937 -0.1050
35149W        W38747  15.814  14.444   8.339 -0.0419  0.1635 -0.2679
35150W        W38748   6.582  16.139  13.929 -0.0805 -0.0885 -0.0013
35151W        W38749  16.034  11.339  12.073  0.0072 -0.0242 -0.0421
35152W        W38750  11.769  16.171   0.658 -0.1871  0.1685 -0.0217
35153W        W38751   3.539   9.835   1.076 -0.0225  0.2589  0.3349
35154W        W38752  14.704  11.683  10.159  0.4709 -0.0161  0.0307
35155W        W38753  14.447   7.997  15.254 -0.2340  0.1036 -0.2010
35156W        W38754   6.195   1.035  13.242  0.3174  0.2710 -0.0152
35157W        W38755  13.825   6.293  12.421 -0.3026 -0.0184 -0.1913
35158W        W38756   9.322   3.390   2.985  0.0742 -0.1145 -0.0210
35159W        W38757   6.772   9.974   2.381  0.2779 -0.0491 -0.0202
35160W        W38758   9.321  14.333   2.163  0.0956  0.1161 -0.0551
35161W        W38759   9.092   4.445   0.681 -0.2111 -0.2725  0.0976
35162W        W38760   7.061  11.669   2.456  0.1212  0.1201  0.2678
35163W        W38761   2.538   2.882   3.301 -0.1125 -0.1434  0.0416
35164W        W38762   6.782   6.552   8.188 -0.1937 -0.0046  0.1249
35165W        W38763   2.678  12.121   8.015 -0.1939 -0.0739  0.2433
35166W        W38764  15.513   8.684   4.229  0.1806  0.1194 -0.0757
35167W        W38765  14.825  11.179  16.007 -0.0429 -0.1666  0.0333
35168W        W38766  14.439  12.298  12.110 -0.0161 -0.0868  0.0528
35169W        W38767  13.857   0.077  10.549 -0.0895  0.0550  0.3510
35170W        W38768  16.028  11.888   6.999  0.0380  0.0412 -0.2497
35171W        W38769   8.922   5.106   8.480 -0.0752 -0.3300 -0.4809
35172W        W38770   8.556   4.270  14.487 -0.1241  0.1433 -0.4393
35173W        W38771  13.755   0.758   9.430  0.0351 -0.0294  0.2617
35174W        W38772   1.611   1.716  14.216  0.0247  0.5586  0.2812
35175W        W38773   7.676   6.328  12.054  0.0020 -0.1098  0.0460
35176W        W38774   7.189   8.442  12.013  0.1463 -0.1273  0.2501
35177W        W38775   2.516   9.945  16.110  0.1091  0.0753 -0.2541
35178W        W38776  16.072  15.034   4.559 -0.0619  0.2363 -0.1455
35179W        W38777   7.203   4.271  11.516 -0.1741 -0.0016 -0.0935
35180W        W38778  10.082   0.853   0.129  0.0832 -0.1385 -0.0774
35181W        W38779  10.509   7.978  10.877  0.3347  0.3225 -0.0406
35182W        W38780   7.289   8.558   7.493 -0.0962 -0.1520 -0.1773
35183W        W38781   5.175   8.015  14.899 -0.1119 -0.4147 -0.0820
35184W        W38782   9.077  15.875   2.351 -0.4191 -0.0144  0.1321
35185W        W38783  13.992  13.174  10.951  0.0038 -0.2347  0.1896
35186W        W38784   0.639   8.817   9.291  0.0148  0.2094 -0.0245
35187W        W38785   1.994   2.473   3.928 -0.0009 -0.1546 -0.0498
35188W        W38786  15.383   3.277   4.045  0.1158 -0.2075 -0.0805
35189W        W38787  10.621   9.602   9.979 -0.0291  0.0553 -0.0907
35190W        W38788   5.499   0.855   2.309  0.1585 -0.4100  0.0906
35191W        W38789   7.082   5.819  11.125  0.1768 -0.0585 -0.0962
35192W        W38790  13.598   9.611   4.778 -0.1900 -0.1061 -0.0084
35193W        W38791   3.235   1.560   1.894 -0.0867 -0.0618 -0.0196
35194W        W38792   9.926   2.319   4.274  0.0753 -0.1943  0.1545
35195W        W38793  12.723  14.082   1.034 -0.0553 -0.2401  0.0582
35196W        W38794  10.371  14.022  13.898 -0.1875  0.1340  0.0490
35197W        W38795   5.824   3.333   1.592  0.0035  0.1290 -0.0670
35198W        W38796  14.004  14.288  11.167  0.0847  0.4134 -0.1379
35199W        W38797   5.373   5.014  11.299 -0.0562  0.1755 -0.0319
35200W        W38798   1.393   4.158  13.940 -0.0630 -0.1322 -0.1070
35201W        W38799   7.221   1.119   1.136  0.1013 -0.0505  0.0155
35202W        W38800   3.366   3.543  11.935 -0.3123  0.0965 -0.0091
35203W        W38801   9.538   8.506   3.971 -0.3381  0.0986 -0.2785
35204W        W38802   6.818   7.125   4.205 -0.2925 -0.0596  0.3055
35205W        W38803   8.605  13.198   5.785  0.1090 -0.0164 -0.0554
35206W        W38804   5.711  11.206  15.358  0.0654  0.2114 -0.2973
35207W        W38805  14.266   4.797   9.532  0.2316 -0.0625  0.2498
35208W        W38806  12.270   1.422   8.693  0.0531 -0.0406  0.3544
35209W        W38807   0.728   1.705   3.796  0.3260  0.1943 -0.4720
35210W        W38808   8.268  12.063  15.865 -0.3188 -0.1779 -0.1160
35211W        W38809   1.121   9.287   6.025 -0.0524 -0.1277  0.3208
35212W        W38810  15.697   5.586   3.759 -0.1070  0.4661 -0.1155
35213W        W38811   1.700   0.094  14.237  0.1135 -0.0174 -0.1628
35214W        W38812  14.997  10.485   0.077  0.0328 -0.1528 -0.1388
35215W        W38813  13.613  15.743   7.767 -0.1883 -0.2659 -0.3328
35216W        W38814   1.933   6.377   0.779 -0.2628  0.1416 -0.0776
35217W        W38815  11.200   1.213  14.426 -0.2036 -0.1026 -0.2540
35218W        W38816   6.553   9.786   9.795  0.0093  0.1470 -0.1292
35219W        W38817  14.589   4.778  14.705 -0.1143  0.0513 -0.2755
35220W        W38818   5.539   9.089  14.010 -0.1641 -0.2083 -0.1828
35221W        W38819  10.203   4.541  15.656  0.4488 -0.1115  0.0555
35222W        W38820  12.833   3.860  14.528  0.3420 -0.0560  0.0176
35223W        W38821   3.290   0.674   3.277 -0.0263  0.1460 -0.0004
35224W        W38822   9.244   1.278   3.002  0.0556  0.0651  0.0907
35225W        W38823   1.843   9.126  11.386  0.3763  0.1434 -0.0497
35226W        W38824  11.467  12.926   1.566  0.2615  0.0417 -0.0215
35227W        W38825   0.905   7.677  10.879 -0.0032  0.1324  0.2637
35228W        W38826   1.122   3.149   0.986 -0.0785  0.2160  0.1387
35229W        W38827   0.260   5.534   1.194  0.0854 -0.2811  0.0931
35230W        W38828   5.407   7.362   3.531  0.0053 -0.2548 -0.1414
35231W        W38829  11.315  10.134  14.533 -0.1953  0.4169 -0.1100
35232W        W38830  12.875  12.819  13.950 -0.1896  0.0939 -0.1055
35233W        W38831  10.265   7.563   5.765 -0.1807 -0.1126  0.0553
35234W        W38832   8.234   3.704  10.421 -0.0427  0.1870  0.2300
35235W        W38833   7.235   7.714   9.705  0.2833 -0.3436 -0.0410
35236W        W38834   2.579  10.359   2.842  0.2806  0.3512 -0.1150
35237W        W38835  14.418   1.678  10.341 -0.1356  0.1232 -0.0958
35238W        W38836  13.951   0.844   2.973  0.1121 -0.2440  0.1264
35239W        W38837   7.950   3.983   1.365  0.1254  0.0263  0.0960
35240W        W38838   9.519   6.905  10.231  0.0514  0.0912  0.0884
35241W        W38839   7.273  11.675   4.096 -0.0148 -0.0771 -0.1695
35242W        W38840  10.466  13.631  13.184  0.0859  0.1443  0.3106
35243W        W38841   5.107   3.943   2.150 -0.1711  0.0089  0.4373
35244W        W38842   4.147   8.655   3.718 -0.1167  0.5059  0.0301
35245W        W38843  11.711   1.356   7.451 -0.0791 -0.0223 -0.1212
35246W        W38844   9.139   0.387   6.268 -0.0288  0.2347 -0.2536
35247W        W38845  13.766  15.016   4.418 -0.2162 -0.2041  0.1535
35248W        W38846   6.144  11.952  13.247  0.0747  0.2210 -0.0143
35249W        W38847   5.980   4.400   4.623 -0.0052  0.3286  0.0055
35250W        W38848  11.871  14.791   1.950  0.0198  0.0581  0.0039
35251W        W38849   9.854   4.149   2.566 -0.1337  0.0419  0.0781
35252W        W38850   6.099   8.511   7.979  0.1624 -0.1653 -0.0509
35253W        W38851   9.975   1.401   4.715 -0.2080 -0.0182  0.4101
35254W        W38852   9.792   3.724   6.686  0.1385  0.1003  0.1693
35255W        W38853  16.115  12.056  12.667 -0.0529 -0.2949  0.0300
35256W        W38854   7.074   6.716   3.343  0.1363  0.0779  0.2948
35257W        W38855  14.252  13.310   4.372 -0.1093 -0.0316  0.3539
35258W        W38856  10.309   1.700   1.487 -0.5040 -0.3333  0.0690
35259W        W38857   5.350   4.842  12.957  0.2306 -0.0608 -0.0763
35260W        W38858   9.604  11.709  10.935  0.2007 -0.2248 -0.1859
35261W        W38859   8.636   9.523  14.258 -0.1517 -0.0647 -0.1326
35262W        W38860   0.035  11.470   1.653  0.5049  0.0998  0.0354
35263W        W38861   7.382  15.057  11.564  0.1952  0.1335 -0.1361
35264W        W38862  16.207   2.005   1.662 -0.0059 -0.0984 -0.2244
35265W        W38863  15.119   6.974   9.993 -0.2840  0.1032 -0.1686
35266W        W38864  12.622   8.300   9.711 -0.0143 -0.0849 -0.1913
35267W        W38865  10.945   1.123   0.208  0.2046 -0.0722  0.2669
35268W        W38866   5.827  13.966   9.691 -0.1794  0.1598  0.0711
35269W        W38867  12.609   8.869   0.206 -0.0089 -0.2344 -0.0707
35270W        W38868  15.774   5.452   5.572 -0.0813  0.0286  0.0407
35271W        W38869   2.266  13.187   9.210 -0.3133  0.2476 -0.2311
35272W        W38870  10.090   0.767  12.053  0.1701 -0.1162  0.0070
35273W        W38871  15.087   4.151  10.489 -0.0673 -0.0655 -0.2322
35274W        W38872   4.329   0.634   8.112  0.1496  0.0756 -0.1590
35275W        W38873   6.736   5.145  14.545  0.3339  0.1953  0.2700
35276W        W38874  14.685   0.469  13.974  0.0572  0.0561 -0.1474
35277W        W38875   0.217  12.530   1.839 -0.2109 -0.0245  0.2019
35278W        W38876   8.003   2.475   8.206 -0.1716  0.0969 -0.1372
35279W        W38877  14.222  13.684   8.339  0.1377  0.1296 -0.0230
35280W        W38878  11.262  11.802   9.507 -0.1252 -0.3227  0.0767
35281W        W38879  11.459   0.922  13.649 -0.1611 -0.2052  0.1523
35282W        W38880  14.420   3.570   1.330 -0.0110  0.1043 -0.0812
35283W        W38881   8.215   6.061   1.290 -0.4096 -0.0092 -0.0300
35284W        W38882  11.841  12.728   1.876  0.0092 -0.0857  0.0812
35285W        W38883   0.332   8.260  14.736  0.0844 -0.0856 -0.0029
35286W        W38884  14.198   3.083   1.449  0.0164 -0.2165  0.1003
35287W        W38885  13.424   9.350  13.002  0.1670 -0.3099  0.0403
35288W        W38886   7.212  15.389   9.682  0.3760  0.0420  0.3336
35289W        W38887   1.349   6.365  10.364 -0.1868 -0.0218  0.3217
35290W        W38888   8.956  13.360   9.522 -0.1448 -0.0854 -0.2828
35291W        W38889   8.781  11.894   1.125  0.0371 -0.1368  0.0239
35292W        W38890  15.203   7.180   7.726 -0.2241  0.0212  0.1182
35293W        W38891   8.551   5.328  12.518  0.0766 -0.0957  0.1202
35294W        W38892  10.456   6.571   6.916 -0.0001  0.0815 -0.1641
35295W        W38893  10.982   2.288  11.196 -0.2514  0.0660 -0.1932
35296W        W38894   7.631  12.414  10.171  0.1010 -0.1291  0.1536
35297W        W38895   1.207   8.476   0.112  0.3010  0.0674 -0.0251
35298W        W38896   3.629  10.754  15.395 -0.0445  0.3531 -0.2720
35299W        W38897  14.303  13.817   4.304 -0.0792 -0.1183 -0.0513
35300W        W38898  10.056   5.272   1.582  0.0694 -0.0324  0.2047
35301W        W38899   6.519   4.215   7.334  0.2587 -0.0358  0.0229
35302W        W38900   1.706   8.630   7.065 -0.0795  0.3574  0.0670
35303W        W38901  10.706  12.531   1.013  0.1755 -0.4148 -0.1096
35304W        W38902   7.418  12.194  10.651 -0.0299 -0.2294 -0.1584
35305W        W38903   2.063   3.805   1.637  0.2842 -0.0580  0.1575
35306W        W38904  12.894   7.469   2.742 -0.0051  0.3047  0.1094
35307W        W38905   9.969   0.588   8.040 -0.1779  0.1768  0.0884
35308W        W38906   7.165   6.484  14.829  0.2709  0.1147  0.1726
35309W        W38907   8.126   9.472   5.981  0.3896 -0.0165 -0.0814
35310W        W38908   9.324  13.079  14.563 -0.3034  0.2021  0.1385
35311W        W38909  14.003   4.002   9.056 -0.0894 -0.0071 -0.0247
35312W        W38910  16.358   5.374   1.863 -0.1347  0.3280  0.2192
35313W        W38911   0.089   2.088  14.010  0.0831  0.1332 -0.0731
35314W        W38912   1.482   7.100   6.343 -0.2437 -0.1387 -0.1545
35315W        W38913  11.076   8.992   3.016  0.0781  0.0545  0.1995
35316W        W38914  14.730  13.579   2.276 -0.1111 -0.0242  0.0467
35317W        W38915   3.783   2.963   2.020  0.0092 -0.4785  0.1641
35318W        W38916   1.353  11.995   3.669 -0.1640 -0.3359 -0.3187
35319W        W38917  12.484  14.643   0.138 -0.0121 -0.2395  0.1267
35320W        W38918   6.550   7.530  10.286  0.2200  0.2521 -0.1875
35321W        W38919  13.835   0.594  11.380 -0.3736  0.1258  0.0687
35322W        W38920  14.228   3.307   4.992 -0.2733 -0.0077 -0.0251
35323W        W38921  16.244   3.499  14.543 -0.0578  0.0509  0.1023
35324W        W38922   1.893  14.995   1.064  0.1082 -0.1806  0.2069
35325W        W38923   1.176  10.731  10.437 -0.1448 -0.0102 -0.1694
35326W        W38924  11.245   9.329   4.241 -0.1504 -0.1437 -0.2001
35327W        W38925   3.212  10.801   5.117 -0.2328  0.1014  0.0416
35328W        W38926  14.810   9.845   5.227  0.0341  0.4345  0.1919
35329W        W38927  10.175   8.000   5.003 -0.0839 -0.0838 -0.1152
35330W        W38928  15.330   1.638  10.067 -0.2702  0.0092  0.0442
35331W        W38929  16.348  11.157  10.492  0.1100 -0.1090  0.2433
35332W        W38930   6.889   5.268   0.939 -0.2388  0.2072  0.1323
35333W        W38931  14.251   6.589  11.030  0.1332  0.1842  0.0611
35334W        W38932  14.713   4.118  12.372  0.1300  0.0516  0.1345
35335W        W38933   2.896   6.179  12.435  0.1743  0.0255  0.1314
35336W        W38934   7.215  15.712   8.870 -0.2291 -0.0835 -0.0802
35337W        W38935   3.265  12.430   2.686 -0.1496 -0.3105 -0.2562
35338W        W38936   6.608  10.780  15.499  0.0616  0.1012  0.3059
35339W        W38937   1.626  14.352  11.256  0.1490  0.0073  0.1439
35340W        W38938   4.453   4.635  16.287 -0.0670 -0.1846  0.3207
35341W        W38939   4.993   6.654   6.501 -0.2253 -0.3966  0.1454
35342W        W38940   8.352  14.447   4.459 -0.1347  0.1280  0.2476
35343W        W38941   7.648   8.975  15.619 -0.2500 -0.0122 -0.1304
35344W        W38942  13.908  10.106   2.286  0.2012 -0.3712 -0.1397
35345W        W38943   7.594  12.755   2.020  0.2235  0.1244 -0.3227
35346W        W38944   2.253   0.375  12.181 -0.1760  0.1560 -0.0154
35347W        W38945   1.812  12.033   1.533 -0.2912 -0.0494  0.0791
35348W        W38946   6.755   1.736  13.263  0.2148  0.0128  0.2822
35349W        W38947  11.801   1.244  15.804  0.2185 -0.0441  0.1371
35350W        W38948   4.790  15.358   6.868 -0.0499 -0.1969 -0.0767
35351W        W38949   8.018  14.707   0.429 -0.0271 -0.5280 -0.2930
35352W        W38950   7.789   0.944  15.940 -0.0166 -0.0233  0.0116
35353W        W38951   5.785  12.644   5.985  0.0505  0.1675 -0.2520
35354W        W38952   2.102   3.153   4.465  0.0937 -0.0396 -0.2314
35355W        W38953   4.044  10.438  10.715 -0.0802 -0.3437  0.4585
35356W        W38954   3.291   8.645   4.735  0.0909  0.1205  0.2319
35357W        W38955  10.462   3.694   9.477 -0.1204 -0.0333  0.1454
35358W        W38956  11.458   8.407   6.150  0.2695 -0.0614  0.2654
35359W        W38957  14.043  15.212   2.839  0.1229 -0.3049  0.1440
35360W        W38958  15.115   1.657   1.834  0.0819 -0.2033  0.2300
35361W        W38959   5.732   1.029   5.122  0.0976  0.1439  0.0899
35362W        W38960  12.617   4.476  14.407  0.0719  0.0799  0.2347
35363W        W38961  12.459   9.451   8.867 -0.0693  0.1574 -0.0605
35364W        W38962  11.473   8.380   8.022 -0.0105 -0.1093  0.0467
35365W        W38963   3.343  13.075  13.545  0.3895 -0.2058 -0.0440
35366W        W38964   3.162  13.652  14.421  0.0103  0.3111  0.1285
35367W        W38965   5.545  10.950   5.631  0.2155  0.2003 -0.0945
35368W        W38966   2.526  11.312   2.458  0.0258  0.3950  0.1514
35369W        W38967  11.619  12.329   9.491  0.0708 -0.0682 -0.1558
35370W        W38968  13.473  14.034  12.497  0.0439 -0.1249 -0.1678
35371W        W38969   9.819   8.582   8.486 -0.2546 -0.0688  0.3130
35372W        W38970   4.385  11.493   4.335  0.1011 -0.1021 -0.0605
35373W        W38971   6.598  12.070   5.813  0.0717 -0.2536 -0.0950
35374W        W38972   7.709  13.837  14.071 -0.1033  0.0578 -0.1134
35375W        W38973  10.016   6.790   5.794 -0.1318  0.0277  0.2300
35376W        W38974   7.686   7.239  16.341  0.0909 -0.1113 -0.4320
35377W        W38975   9.598   5.104  10.853 -0.1182  0.0179 -0.0389
35378W        W38976   2.814   4.773   2.221 -0.2115  0.0921 -0.3247
35379W        W38977  13.623   1.672   3.377  0.0647 -0.2954  0.2348
35380W        W38978   0.927  10.836   0.684 -0.0666 -0.0352  0.2820
35381W        W38979   4.543   6.766   6.321  0.2968 -0.0434 -0.3047
35382W        W38980   0.280   4.907   9.595 -0.0333 -0.0425 -0.1663
35383W        W38981  15.373   7.382  12.684  0.0012  0.1690  0.0317
35384W        W38982   3.707   6.010   7.040 -0.2469  0.2612  0.0429
35385W        W38983  10.268   3.524   6.019  0.2052 -0.0374  0.2745
35386W        W38984   9.479   5.467   4.878 -0.1177 -0.0820  0.0844
35387W        W38985   9.715   0.009   7.449 -0.1431  0.0199  0.0040
35388W        W38986  15.091  14.412   1.790  0.1223 -0.0683  0.1276
35389W        W38987  15.280   4.235   8.148 -0.1537 -0.1360  0.0301
35390W        W38988  11.308  10.481   0.080  0.3766  0.1175  0.1252
35391W        W38989   9.332  11.481   2.913  0.3366 -0.0524 -0.3409
35392W        W38990  13.060  12.243   1.529  0.1722 -0.0753  0.0934
35393W        W38991   9.515   8.667  15.415 -0.2689  0.1926 -0.0085
35394W        W38992   4.679  11.890  16.352  0.3372 -0.0084 -0.2916
35395W        W38993   8.286   6.196  15.764 -0.1919  0.1642 -0.3729
35396W        W38994   0.777  14.392   4.632 -0.0143 -0.2578 -0.1616
35397W        W38995  14.923   4.079   5.213 -0.1199  0.3436  0.3529
35398W        W38996  13.098   6.022   3.574  0.1251 -0.0843 -0.1630
35399W        W38997   0.636  14.253   6.961 -0.0950 -0.2088 -0.1854
35400W        W38998   2.092   1.756   8.687 -0.0802 -0.1192  0.0561
35401W        W38999   0.435   6.328  15.207  0.0153  0.1731 -0.0500
35402W        W39000   8.322  13.493   4.338 -0.0644 -0.2889 -0.1482
35403W        W39001  14.139  11.810   5.732  0.2349 -0.0178 -0.0809
35404W        W39002   4.232  13.262   2.346  0.0653 -0.1313  0.0223
35405W        W39003   1.831   0.133   5.585 -0.0565 -0.0920  0.0716
35406W        W39004   1.635  14.189   5.777 -0.3291  0.3202 -0.0663
35407W        W39005  11.717  10.790   0.059 -0.0115  0.0509  0.1733
35408W        W39006  15.489   9.391   8.470 -0.1034 -0.2493  0.3420
35409W        W39007   5.705  15.571  13.987  0.0841 -0.2204 -0.0572
35410W        W39008   7.058  12.523   8.001  0.1349 -0.1696  0.1104
35411W        W39009   0.581   5.835   3.416  0.4012 -0.1014  0.0138
35412W        W39010   2.714   6.689   1.118 -0.1341  0.1964 -0.1343
35413W        W39011   8.016  14.617  13.878 -0.1206 -0.0936 -0.2128
35414W        W39012  12.892  14.437  15.560 -0.0214 -0.0036  0.0754
35415W        W39013   8.139  15.593  13.600  0.1684  0.1448  0.1535
35416W        W39014  15.316   2.116   2.048  0.2922 -0.0250 -0.1271
35417W        W39015   6.525  14.472  14.572 -0.0763  0.0284 -0.2041
35418W        W39016   7.269  11.617   8.213 -0.1710 -0.0058  0.0454
35419W        W39017   2.771   7.527   3.353 -0.1309 -0.0428 -0.1616
35420W        W39018   5.493  11.595  11.140 -0.1401  0.2605  0.1124
35421W        W39019   9.140  12.483   8.737 -0.3116 -0.2966 -0.3590
35422W        W39020   5.878   3.781   5.971  0.1643 -0.1635  0.2465
35423W        W39021  13.373   2.982   5.103 -0.1089  0.0534 -0.0101
35424W        W39022   4.291   9.387   2.035  0.2579 -0.0877  0.2085
35425W        W39023  15.818  11.267   6.694 -0.2318 -0.3296 -0.3591
35426W        W39024  13.378  16.379   3.245 -0.1799  0.0619 -0.0151
35427W        W39025  13.389   4.418  12.635  0.1052  0.2986 -0.2225
35428W        W39026   7.348  14.726  12.401 -0.0571  0.1890  0.1911
35429W        W39027   7.991  15.911   8.695  0.0910 -0.0534 -0.1307
35430W        W39028   8.619  14.937  10.554  0.1973 -0.4164 -0.0692
35431W        W39029  13.700   5.507   5.300  0.0481 -0.0797  0.1598
35432W        W39030  15.587   8.735   5.160 -0.1616 -0.1331  0.2135
35433W        W39031  16.086   3.493  13.567  0.0983 -0.2196 -0.0776
35434W        W39032  12.856  11.816  10.391  0.1763 -0.4448  0.1720
35435W        W39033   8.623  12.882   5.310  0.1164 -0.1144 -0.1057
35436W        W39034  11.091   8.314   5.161 -0.1251 -0.1137 -0.3308
35437W        W39035  10.131  14.649   6.593 -0.0385 -0.0854  0.1570
35438W        W39036   6.955  13.125   1.321 -0.1135 -0.2613  0.3617
35439W        W39037  10.551   3.184  15.354 -0.1386 -0.2110  0.2733
35440W        W39038   0.728  10.146   4.884 -0.1302  0.0062 -0.0100
35441W        W39039   9.314   8.627  10.831 -0.1941  0.1142  0.2517
35442W        W39040   2.180  10.924   3.412 -0.1441  0.3618  0.0101
35443W        W39041   7.645  12.802   9.872 -0.0170 -0.0181  0.0857
35444W        W39042  14.938   2.052   5.819  0.0714  0.0913 -0.0136
35445W        W39043  13.637  14.943   5.819  0.1063 -0.0168  0.2068
35446W        W39044  15.738  11.531  11.020 -0.0014  0.2581  0.2586
35447W        W39045   0.933  10.073  15.396 -0.0570  0.0948  0.1396
35448W        W39046   3.903  10.563  14.471  0.0608 -0.0886  0.3359
35449W        W39047   6.916   5.827  13.800  0.2929  0.1133 -0.1446
35450W        W39048   3.655   2.785   0.249  0.3680 -0.0927  0.1348
35451W        W39049   6.928   4.842  10.151 -0.0727  0.0955  0.1568
35452W        W39050   4.427   4.935   3.033 -0.1098 -0.1024 -0.2342
35453W        W39051  16.020   2.171  15.199 -0.3849 -0.0787 -0.2354
35454W        W39052  10.180   9.693  15.110 -0.0017  0.1634 -0.0307
35455W        W39053   4.038   3.842  12.336 -0.3449 -0.0129  0.0348
35456W        W39054   7.837   2.696  13.248 -0.0376  0.0844  0.1925
35457W        W39055   3.007  10.834  12.594  0.2744  0.2845  0.4737
35458W        W39056  16.159  14.704   6.567  0.1513 -0.2698 -0.0624
35459W        W39057   8.885   9.675  11.788  0.0790 -0.2203 -0.2969
35460W        W39058   7.476  11.156  15.155  0.0712 -0.2554 -0.0862
35461W        W39059  15.779   2.029   0.459 -0.0923  0.3110 -0.3511
35462W        W39060  13.069  12.328  13.216  0.1227  0.0288  0.2311
35463W        W39061  15.684  13.610  10.843  0.0122 -0.0438  0.4147
35464W        W39062  12.811  16.119  10.766 -0.1614 -0.2973 -0.0289
35465W        W39063  10.647  13.019  16.231 -0.2174  0.0905 -0.2837
35466W        W39064  11.705   6.010   6.762  0.0081 -0.1047  0.0032
35467W        W39065  12.381  13.197  15.989 -0.2611 -0.1222  0.0370
35468W        W39066  13.764   8.602  14.665 -0.3137 -0.3759  0.1360
35469W        W39067   8.944   0.874   6.157  0.1676  0.0151  0.0127
35470W        W39068  11.214   8.862   8.871 -0.3526 -0.2328 -0.1602
35471W        W39069  10.196  10.795   0.797  0.1668  0.3674  0.1062
35472W        W39070   5.816   2.946   5.368  0.1726  0.0840 -0.0429
35473W        W39071  11.939  10.620  11.583  0.0126 -0.1266  0.0121
35474W        W39072   4.181   9.125  11.105 -0.1022 -0.1123  0.3357
35475W        W39073  15.280  13.859   6.739 -0.2608 -0.3334 -0.2747
35476W        W39074   4.763  14.328  14.528  0.1269  0.0690  0.0695
35477W        W39075   2.685  12.278   7.060 -0.0982  0.0375  0.0716
35478W        W39076  13.777   6.745   9.559 -0.2394  0.2055 -0.2401
35479W        W39077  16.283  12.064   2.543 -0.1278  0.0012 -0.0373
35480W        W39078  13.326  15.351   0.999  0.3114 -0.1225  0.0516
35481W        W39079  11.225   4.706   5.587  0.1022  0.3503  0.0216
35482W        W39080   1.098   9.836   6.427  0.1260 -0.2701  0.1564
35483W        W39081   1.500   0.933  15.952  0.1325 -0.2247  0.0645
35484W        W39082  13.103   6.002   2.304 -0.1196 -0.1046  0.2645
35485W        W39083  14.621  15.765  12.776 -0.4810 -0.1155 -0.1545
35486W        W39084  10.747   1.760   1.127 -0.0737  0.1690 -0.0731
35487W        W39085   3.648  10.611   5.368 -0.0757  0.0943  0.3458
35488W        W39086   6.553  16.197   4.155 -0.5004 -0.0638  0.0455
35489W        W39087   4.810  11.324   6.407  0.0389 -0.1033  0.0777
35490W        W39088   5.667   2.634   8.000 -0.3900 -0.1517 -0.1005
35491W        W39089  13.869  11.769   4.338 -0.2391 -0.0734  0.0725
35492W        W39090   3.233  11.962   3.409 -0.1191  0.2287 -0.0567
35493W        W39091   9.422   4.880   8.422 -0.1183 -0.3941 -0.1720
35494W        W39092   0.353   3.149  11.762 -0.0443 -0.2538  0.1050
35495W        W39093  11.855  12.042  11.460  0.1017 -0.2649 -0.1930
35496W        W39094   6.278   5.414  16.168  0.0515 -0.1571  0.1209
35497W        W39095   2.613   7.647   5.823 -0.0423 -0.1331 -0.1894
35498W        W39096   7.182   6.956   7.854 -0.1826 -0.0883 -0.1717
35499W        W39097   5.773   0.781  10.217  0.1517 -0.1141 -0.0186
35500W        W39098  12.513  12.523   8.089  0.1302  0.0933 -0.0350
35501W        W39099   5.044   0.020   1.892  0.0303 -0.1692  0.0218
35502W        W39100   3.226  11.605  14.558  0.0583 -0.1412  0.0905
35503W        W39101   5.575   7.317   9.901 -0.2058 -0.0436  0.3629
35504W        W39102   5.705   5.307   1.199 -0.1933  0.1201  0.0504
35505W        W39103  14.942   4.214  15.009  0.0084 -0.1944 -0.0320
35506W        W39104  15.875   3.565  11.879 -0.0213 -0.0272 -0.0580
35507W        W39105   7.559   3.396   8.052 -0.0895  0.0342 -0.1660
35508W        W39106  15.867   7.403  12.924  0.3356 -0.0810 -0.1769
35509W        W39107  10.641  15.431   6.236 -0.2015  0.1072 -0.1478
35510W        W39108   6.900  10.375   7.710  0.1833 -0.4212  0.3113
35511W        W39109  16.191   0.273  14.841  0.2749 -0.2751  0.2115
35512W        W39110   7.262  10.434   8.054  0.0595 -0.0818 -0.1176
35513W        W39111   7.853   0.990  12.499 -0.0562 -0.2624 -0.3969
35514W        W39112  10.112   1.143  13.909 -0.1685  0.3026  0.1033
35515W        W39113   2.758   7.024   4.395  0.1313 -0.0991 -0.1882
35516W        W39114  14.491   4.908   8.444  0.1212 -0.0011 -0.3072
35517W        W39115  15.722  14.655   2.157  0.1840 -0.1775  0.0238
35518W        W39116   8.388  13.682   2.838 -0.1279 -0.0091  0.0413
35519W        W39117  14.971  15.176   1.835  0.1730 -0.1453 -0.1009
35520W        W39118  13.954   1.052   6.155  0.1494  0.0530 -0.0622
35521W        W39119   5.754   7.225  14.541  0.0499 -0.0163  0.0879
35522W        W39120   8.250   3.672   9.313  0.0226  0.1651 -0.1139
35523W        W39121   9.560   2.199  15.983 -0.0416 -0.0988  0.0076
35524W        W39122  10.180   9.964   9.262  0.2184 -0.1299 -0.0456
35525W        W39123   2.439  10.500  14.444  0.0967 -0.0211 -0.3139
35526W        W39124   2.282  12.172   9.383 -0.0984 -0.3441  0.0631
35527W        W39125  14.214   3.967  14.354  0.1393  0.0111  0.2540
35528W        W39126  14.179  14.473   5.124 -0.3655  0.1165  0.5060
35529W        W39127  10.723   1.361  12.063  0.3536  0.1021  0.0899
35530W        W39128   4.851  10.895   1.751 -0.1358  0.1310 -0.0800
35531W        W39129   3.445   6.003   0.215  0.0374 -0.1453 -0.3766
35532W        W39130   2.046   7.654   7.573 -0.1764 -0.0391  0.1107
35533W        W39131  10.239   4.828   3.793 -0.1887 -0.1360 -0.2206
35534W        W39132   5.314  12.530  16.093  0.0231 -0.0114  0.2154
35535W        W39133  15.795   5.501   1.062 -0.1108 -0.0317 -0.0242
35536W        W39134   6.928   6.621  12.749  0.0307  0.0347 -0.3108
35537W        W39135  15.162  13.848  12.621 -0.3931  0.0487 -0.0380
35538W        W39136  12.709   9.352  15.029  0.1895  0.3275 -0.0808
35539W        W39137   6.591   9.536   5.697 -0.1122 -0.0952  0.0348
35540W        W39138   8.802  14.485   2.187  0.1249  0.0838 -0.1406
35541W        W39139   1.014   7.632  11.775 -0.0593  0.1471  0.0489
35542W        W39140  12.714  14.794  15.300 -0.2010 -0.1942  0.0716
35543W        W39141  10.884   3.596   7.774 -0.0985 -0.2753  0.2734
35544W        W39142  10.830   6.567  14.448  0.1156  0.0732 -0.0401
35545W        W39143   5.929  10.282  15.144  0.1075  0.1223 -0.1222
35546W        W39144   7.258  15.257   9.150  0.0666 -0.1642 -0.0565
35547W        W39145   1.460  11.831   1.112  0.0582 -0.0362  0.2670
35548W        W39146   2.607  16.250   5.012  0.2938 -0.1188 -0.0262
35549W        W39147   2.599   8.427   1.029  0.0267 -0.2931 -0.1730
35550W        W39148   8.574   1.048  10.043 -0.3455 -0.1764  0.2881
35551W        W39149  13.457   0.394  12.189 -0.3047  0.0503 -0.3655
35552W        W39150  14.011  13.074   9.926  0.0821  0.1147  0.2908
35553W        W39151   8.974   3.591   1.050  0.0626  0.2822  0.1215
  16.39336  16.39336  16.39336
